 Gaussian 16, Revision B.01,
 Gaussian 16:  ES64L-G16RevB.01 20-Dec-2017

 --------------------------------------------------------------------
 # opt td=(root=1) LC-BLYP/6-31+g(d) density=current scf=maxcycle=600
 --------------------------------------------------------------------

 -------------------
 Title Card Required
 -------------------
 Symbolic Z-matrix:
 Charge =  0 Multiplicity = 1

 SCF Done:  E(RLC-B+HF-LYP) =  -362.735174233     A.U. after   16 cycles
 Total Energy, E(TD-HF/TD-DFT) =  -362.543127123
 SCF Done:  E(RLC-B+HF-LYP) =  -362.730638774     A.U. after   15 cycles
 Total Energy, E(TD-HF/TD-DFT) =  -362.546941855
 SCF Done:  E(RLC-B+HF-LYP) =  -362.729246692     A.U. after   14 cycles
 Total Energy, E(TD-HF/TD-DFT) =  -362.547336432
 SCF Done:  E(RLC-B+HF-LYP) =  -362.728991290     A.U. after   12 cycles
 Total Energy, E(TD-HF/TD-DFT) =  -362.547388007
 SCF Done:  E(RLC-B+HF-LYP) =  -362.729065657     A.U. after   12 cycles

 Excitation energies and oscillator strengths:

 Excited State   1:      Singlet-A'     4.9435 eV  250.80 nm  f=0.0743  <S**2>=0.000
      30 -> 33        -0.48510
      30 -> 38         0.15304
      31 -> 33         0.38609
      31 -> 38         0.21390
      31 -> 42        -0.11433
 This state for optimization and/or second-order correction.
 Total Energy, E(TD-HF/TD-DFT) =  -362.547395037
 Copying the excited state density for this state as the 1-particle RhoCI density.

 Excited State   2:      Singlet-A'     5.2822 eV  234.72 nm  f=0.1105  <S**2>=0.000
      30 -> 33        -0.35114
      30 -> 38        -0.18041
      31 -> 33        -0.51610
      31 -> 38         0.21958

 Excited State   3:      Singlet-A"     5.8321 eV  212.59 nm  f=0.0018  <S**2>=0.000
      31 -> 32        -0.64265
      31 -> 34         0.11137
      31 -> 40        -0.12515

 Optimization completed.
    -- Stationary point found.

                         Standard orientation:
 ---------------------------------------------------------------------
 Center     Atomic      Atomic             Coordinates (Angstroms)
 Number     Number       Type             X           Y           Z
 ---------------------------------------------------------------------
      1          6           0       -2.265586    0.779755    0.000000
      2          1           0       -3.222877    1.277195    0.000000
      3          6           0       -1.932688   -0.534989    0.000000
      4          1           0       -2.628438   -1.362616    0.000000
      5          6           0       -0.507781   -0.636214    0.000000
      6          6           0        0.405159   -1.692408    0.000000
      7          6           0        1.785056   -1.364958    0.000000
      8          6           0        2.265051   -0.044988    0.000000
      9          6           0        1.372135    1.042190    0.000000
     10          6           0       -0.000000    0.717223    0.000000
     11          1           0        0.082839   -2.726486    0.000000
     12          1           0        2.506116   -2.176401    0.000000
     13          1           0        3.334236    0.129630    0.000000
     14          1           0        1.713433    2.070587    0.000000
     15          7           0       -1.069817    1.523137    0.000000
     16          1           0       -1.024675    2.532467    0.000000
 ---------------------------------------------------------------------

 The electronic state is 1-A'.
 Alpha  occ. eigenvalues --  -14.30535 -10.19852 -10.19609 -10.16536 -10.16313
 Alpha  occ. eigenvalues --  -10.16211 -10.15895 -10.15332 -10.15095  -1.15689
 Alpha  occ. eigenvalues --   -1.00748  -0.95627  -0.89351  -0.88456  -0.78229
 Alpha  occ. eigenvalues --   -0.74471  -0.73252  -0.68478  -0.62942  -0.61014
 Alpha  occ. eigenvalues --   -0.57313  -0.57003  -0.56559  -0.54741  -0.52646
 Alpha  occ. eigenvalues --   -0.47949  -0.46557  -0.46332  -0.40560  -0.31949
 Alpha  occ. eigenvalues --   -0.30918
 Alpha virt. eigenvalues --    0.04605   0.05469   0.06372   0.06763   0.08078
 Alpha virt. eigenvalues --    0.08404   0.09989   0.10566   0.10682   0.10937
 Alpha virt. eigenvalues --    0.11619   0.11651   0.13602   0.14792   0.14813

 Mulliken charges:
               1
     1  C   -0.337050
     2  H    0.213402
     3  C    0.187303
     4  H    0.210750
     5  C    1.071769
     6  C   -0.753798
     7  C    0.063889
     8  C   -0.453436
     9  C   -0.242408
    10  C   -0.658653
    11  H    0.198834
    12  H    0.195083
    13  H    0.190125
    14  H    0.193821
    15  N   -0.510162
    16  H    0.430533
 Sum of Mulliken charges =   0.00000

 Dipole moment (field-independent basis, Debye):
    X=             -1.3075    Y=              1.7075    Z=              0.0000  Tot=              2.1505
 Quadrupole moment (field-independent basis, Debye-Ang):
   XX=            -49.0430   YY=            -43.4922   ZZ=            -60.1814
   XY=             -2.9338   XZ=             -0.0000   YZ=              0.0000

 Normal termination of Gaussian 16 at Tue Jun 26 08:38:46 2018.
