 Gaussian 16, Revision C.01,
 Gaussian 16:  ES64L-G16RevC.01  3-Jul-2019

 -----------------------------------------------------------
 # td=(nstates=6, root=1) BVP86/6-31G(d) Opt density=current
 -----------------------------------------------------------

 ----------
 FuncsBVP86
 ----------
 Symbolic Z-matrix:
 Charge =  0 Multiplicity = 1

 SCF Done:  E(RB-VP86) =  -363.833068071     A.U. after   16 cycles
 Total Energy, E(TD-HF/TD-DFT) =  -363.666212574
 SCF Done:  E(RB-VP86) =  -363.826936563     A.U. after   13 cycles
 Total Energy, E(TD-HF/TD-DFT) =  -363.678820895
 SCF Done:  E(RB-VP86) =  -363.822601250     A.U. after   13 cycles
 Total Energy, E(TD-HF/TD-DFT) =  -363.680640506
 SCF Done:  E(RB-VP86) =  -363.820852582     A.U. after   11 cycles
 Total Energy, E(TD-HF/TD-DFT) =  -363.680938380
 SCF Done:  E(RB-VP86) =  -363.820846412     A.U. after   10 cycles
 Total Energy, E(TD-HF/TD-DFT) =  -363.680992981
 SCF Done:  E(RB-VP86) =  -363.821005598     A.U. after    9 cycles
 Total Energy, E(TD-HF/TD-DFT) =  -363.681002683
 SCF Done:  E(RB-VP86) =  -363.821049351     A.U. after    8 cycles

 Excitation energies and oscillator strengths:

 Excited State   1:      Singlet-A      3.8108 eV  325.35 nm  f=0.0404  <S**2>=0.000
      29 -> 32         0.16589
      31 -> 32         0.66928
 This state for optimization and/or second-order correction.
 Total Energy, E(TD-HF/TD-DFT) =  -363.681003413
 Copying the excited state density for this state as the 1-particle RhoCI density.

 Excited State   2:      Singlet-A      4.5759 eV  270.95 nm  f=0.0044  <S**2>=0.000
      30 -> 32         0.51504
      31 -> 33        -0.46851

 Excited State   3:      Singlet-A      5.5225 eV  224.51 nm  f=0.1172  <S**2>=0.000
      29 -> 32         0.48108
      29 -> 34        -0.12946
      30 -> 32        -0.15040
      30 -> 33        -0.15906
      30 -> 34        -0.10820
      31 -> 32        -0.15405
      31 -> 33        -0.23768
      31 -> 34         0.32903

 Excited State   4:      Singlet-A      5.7238 eV  216.61 nm  f=0.3780  <S**2>=0.000
      29 -> 32         0.13685
      29 -> 33         0.28787
      30 -> 32         0.38921
      31 -> 33         0.40470
      31 -> 34         0.27344

 Excited State   5:      Singlet-A      6.0053 eV  206.46 nm  f=0.0001  <S**2>=0.000
      31 -> 35         0.70574

 Excited State   6:      Singlet-A      6.3264 eV  195.98 nm  f=0.0448  <S**2>=0.000
      29 -> 32        -0.23263
      29 -> 34        -0.15145
      30 -> 32        -0.12722
      30 -> 33         0.48982
      30 -> 34        -0.14595
      31 -> 33        -0.12405
      31 -> 34         0.32355

 Optimization completed.
    -- Stationary point found.

                         Standard orientation:
 ---------------------------------------------------------------------
 Center     Atomic      Atomic             Coordinates (Angstroms)
 Number     Number       Type             X           Y           Z
 ---------------------------------------------------------------------
      1          6           0       -2.203089    0.659050    0.001017
      2          6           0       -2.153081   -0.734040    0.000963
      3          6           0       -0.920424   -1.480117   -0.000518
      4          6           0        0.239477   -0.643348   -0.001781
      5          6           0        0.217032    0.747349   -0.001806
      6          6           0       -1.017582    1.472901   -0.000097
      7          7           0        1.624960   -1.042324    0.000261
      8          6           0        1.615172    1.181155    0.000760
      9          6           0        2.453478    0.018776    0.001374
     10          1           0        1.931446   -2.015143   -0.000461
     11          1           0        1.982042    2.208156    0.002599
     12          1           0        3.536581   -0.076694    0.000277
     13          1           0       -3.095033   -1.294841    0.002876
     14          1           0       -0.882469   -2.569452   -0.002354
     15          1           0       -3.182016    1.150844    0.002857
     16          1           0       -1.051178    2.563032   -0.007098
 ---------------------------------------------------------------------

 The electronic state is 1-A.
 Alpha  occ. eigenvalues --  -14.06535  -9.94686  -9.94606  -9.92396  -9.91633
 Alpha  occ. eigenvalues --   -9.91243  -9.91160  -9.90963  -9.90087  -0.88719
 Alpha  occ. eigenvalues --   -0.75292  -0.69120  -0.66134  -0.63387  -0.56052
 Alpha  occ. eigenvalues --   -0.52759  -0.51150  -0.48173  -0.42575  -0.41766
 Alpha  occ. eigenvalues --   -0.38253  -0.37941  -0.36346  -0.34952  -0.33935
 Alpha  occ. eigenvalues --   -0.30559  -0.29363  -0.28878  -0.23039  -0.20045
 Alpha  occ. eigenvalues --   -0.16416
 Alpha virt. eigenvalues --   -0.04410   0.00102   0.03079   0.05459   0.07595
 Alpha virt. eigenvalues --    0.10720   0.11853   0.13164   0.13900   0.14475
 Alpha virt. eigenvalues --    0.15718   0.18360   0.20168   0.22820   0.25139

 Mulliken charges:
               1
     1  C   -0.150711
     2  C   -0.156568
     3  C   -0.244270
     4  C    0.252250
     5  C    0.148915
     6  C   -0.274176
     7  N   -0.591032
     8  C   -0.218873
     9  C    0.069485
    10  H    0.356279
    11  H    0.182165
    12  H    0.189577
    13  H    0.115295
    14  H    0.103846
    15  H    0.111725
    16  H    0.106093
 Sum of Mulliken charges =  -0.00000

 Dipole moment (field-independent basis, Debye):
    X=              5.3612    Y=             -1.1252    Z=             -0.0044  Tot=              5.4780
 Quadrupole moment (field-independent basis, Debye-Ang):
   XX=            -41.6423   YY=            -44.7526   ZZ=            -56.9095
   XY=             -2.2316   XZ=             -0.0018   YZ=             -0.0064

 Normal termination of Gaussian 16 at Wed Jun 17 10:30:17 2020.
