 Gaussian 16, Revision C.01,
 Gaussian 16:  AS64L-G16RevC.01  3-Jul-2019

 ---------------------------------------------------------
 # td= (nstates=6, root=1) M06/6-31+G* Opt density=current
 ---------------------------------------------------------

 --------
 FuncsM06
 --------
 Symbolic Z-matrix:
 Charge =  0 Multiplicity = 1

 SCF Done:  E(RM06) =  -363.550676085     A.U. after   15 cycles
 Total Energy, E(TD-HF/TD-DFT) =  -363.395544987
 SCF Done:  E(RM06) =  -363.545766921     A.U. after   13 cycles
 Total Energy, E(TD-HF/TD-DFT) =  -363.403569760
 SCF Done:  E(RM06) =  -363.543235687     A.U. after   13 cycles
 Total Energy, E(TD-HF/TD-DFT) =  -363.404308065
 SCF Done:  E(RM06) =  -363.543137726     A.U. after   12 cycles
 Total Energy, E(TD-HF/TD-DFT) =  -363.404342360
 SCF Done:  E(RM06) =  -363.543125386     A.U. after   11 cycles
 Total Energy, E(TD-HF/TD-DFT) =  -363.404357268
 SCF Done:  E(RM06) =  -363.543202720     A.U. after   10 cycles

 Excitation energies and oscillator strengths:

 Excited State   1:      Singlet-A      3.7781 eV  328.17 nm  f=0.0007  <S**2>=0.000
      31 -> 32         0.70445
 This state for optimization and/or second-order correction.
 Total Energy, E(TD-HF/TD-DFT) =  -363.404360457
 Copying the excited state density for this state as the 1-particle RhoCI density.

 Excited State   2:      Singlet-A      4.3778 eV  283.21 nm  f=0.1378  <S**2>=0.000
      30 -> 38         0.13058
      31 -> 33         0.67987

 Excited State   3:      Singlet-A      4.4930 eV  275.95 nm  f=0.0001  <S**2>=0.000
      31 -> 34         0.70272

 Excited State   4:      Singlet-A      4.5851 eV  270.41 nm  f=0.0005  <S**2>=0.000
      31 -> 35         0.70114

 Excited State   5:      Singlet-A      4.8145 eV  257.52 nm  f=0.0004  <S**2>=0.000
      30 -> 32         0.70109

 Excited State   6:      Singlet-A      4.8213 eV  257.16 nm  f=0.0032  <S**2>=0.000
      30 -> 33         0.50996
      31 -> 38        -0.46486

 Optimization completed.
    -- Stationary point found.

                         Standard orientation:
 ---------------------------------------------------------------------
 Center     Atomic      Atomic             Coordinates (Angstroms)
 Number     Number       Type             X           Y           Z
 ---------------------------------------------------------------------
      1          6           0       -2.181391    0.640656    0.000158
      2          6           0       -2.098305   -0.754042    0.000094
      3          6           0       -0.862751   -1.437897   -0.000035
      4          6           0        0.273715   -0.668523   -0.000230
      5          6           0        0.219224    0.754286    0.000017
      6          6           0       -1.028055    1.412959   -0.000304
      7          7           0        1.616965   -1.030317   -0.000192
      8          6           0        1.543817    1.210500    0.000092
      9          6           0        2.367441    0.050333    0.000258
     10          1           0        2.002857   -1.991831   -0.000155
     11          1           0        1.899794    2.234089    0.000056
     12          1           0        3.450615   -0.038335    0.000413
     13          1           0       -3.014438   -1.340345    0.000587
     14          1           0       -0.823472   -2.521063    0.000182
     15          1           0       -3.157063    1.120452    0.000067
     16          1           0       -1.079211    2.499614   -0.000116
 ---------------------------------------------------------------------

 The electronic state is 1-A.
 Alpha  occ. eigenvalues --  -14.46788 -10.29647 -10.29166 -10.26344 -10.25734
 Alpha  occ. eigenvalues --  -10.25668 -10.25662 -10.25363 -10.24605  -1.01163
 Alpha  occ. eigenvalues --   -0.85581  -0.79307  -0.75611  -0.72003  -0.64000
 Alpha  occ. eigenvalues --   -0.60883  -0.59189  -0.55307  -0.49219  -0.48145
 Alpha  occ. eigenvalues --   -0.45320  -0.44663  -0.44332  -0.41436  -0.39898
 Alpha  occ. eigenvalues --   -0.36482  -0.35220  -0.34859  -0.29067  -0.24407
 Alpha  occ. eigenvalues --   -0.20740
 Alpha virt. eigenvalues --   -0.03531  -0.01683  -0.01293  -0.00784   0.00324
 Alpha virt. eigenvalues --    0.00656   0.02175   0.02811   0.02986   0.03406
 Alpha virt. eigenvalues --    0.03899   0.04008   0.06486   0.06814   0.06926

 Mulliken charges:
               1
     1  C    0.073538
     2  C   -0.370688
     3  C    0.078427
     4  C   -3.087870
     5  C    2.492422
     6  C   -0.117648
     7  N    1.296843
     8  C   -6.026978
     9  C    3.956723
    10  H    0.280403
    11  H    0.242233
    12  H    0.270469
    13  H    0.227559
    14  H    0.236321
    15  H    0.218300
    16  H    0.229946
 Sum of Mulliken charges =  -0.00000

 Dipole moment (field-independent basis, Debye):
    X=             -7.3181    Y=              7.1334    Z=              0.0020  Tot=             10.2196
 Quadrupole moment (field-independent basis, Debye-Ang):
   XX=            -71.1908   YY=            -66.4355   ZZ=            -64.9496
   XY=             20.8706   XZ=              0.0008   YZ=             -0.0045

 Normal termination of Gaussian 16 at Wed Jun  9 09:35:23 2021.
