 Gaussian 16, Revision C.01,
 Gaussian 16:  ES64L-G16RevC.01  3-Jul-2019

 -----------------------------------------------------------
 # td= (nstates=6, root=2) MN15/6-31G(d) Opt density=current
 -----------------------------------------------------------

 ------------
 FuncsMN152nd
 ------------
 Symbolic Z-matrix:
 Charge =  0 Multiplicity = 1

 SCF Done:  E(RMN15) =  -363.374388123     A.U. after   14 cycles
 Total Energy, E(TD-HF/TD-DFT) =  -363.185381373
 SCF Done:  E(RMN15) =  -363.367454307     A.U. after   13 cycles
 Total Energy, E(TD-HF/TD-DFT) =  -363.194325143
 SCF Done:  E(RMN15) =  -363.360710762     A.U. after   13 cycles
 Total Energy, E(TD-HF/TD-DFT) =  -363.196427271
 SCF Done:  E(RMN15) =  -363.361870652     A.U. after   11 cycles
 Total Energy, E(TD-HF/TD-DFT) =  -363.196702277
 SCF Done:  E(RMN15) =  -363.362424098     A.U. after   10 cycles
 Total Energy, E(TD-HF/TD-DFT) =  -363.196760019
 SCF Done:  E(RMN15) =  -363.362621264     A.U. after    9 cycles

 Excitation energies and oscillator strengths:

 Excited State   1:      Singlet-A      4.9725 eV  249.34 nm  f=0.0129  <S**2>=0.000
      30 -> 32         0.55200
      31 -> 33        -0.42556

 Excited State   2:      Singlet-A      4.5132 eV  274.72 nm  f=0.1302  <S**2>=0.000
      30 -> 33         0.11296
      31 -> 32         0.68745
 This state for optimization and/or second-order correction.
 Total Energy, E(TD-HF/TD-DFT) =  -363.196765448
 Copying the excited state density for this state as the 1-particle RhoCI density.

 Excited State   3:      Singlet-A      6.1973 eV  200.06 nm  f=0.5333  <S**2>=0.000
      29 -> 32        -0.18900
      30 -> 32         0.37199
      31 -> 33         0.53275
      31 -> 34        -0.14890

 Excited State   4:      Singlet-A      6.5517 eV  189.24 nm  f=0.1176  <S**2>=0.000
      29 -> 32        -0.59809
      30 -> 32        -0.18173
      30 -> 33         0.24263
      31 -> 33        -0.15228
      31 -> 34        -0.14125

 Excited State   5:      Singlet-A      6.9070 eV  179.51 nm  f=0.0603  <S**2>=0.000
      29 -> 32        -0.18759
      31 -> 34         0.66328

 Excited State   6:      Singlet-A      7.0580 eV  175.66 nm  f=0.0001  <S**2>=0.000
      29 -> 35        -0.11689
      31 -> 35        -0.68934

 Optimization completed.
    -- Stationary point found.

                         Standard orientation:
 ---------------------------------------------------------------------
 Center     Atomic      Atomic             Coordinates (Angstroms)
 Number     Number       Type             X           Y           Z
 ---------------------------------------------------------------------
      1          6           0       -2.194867    0.646090   -0.000126
      2          6           0       -2.144403   -0.733365   -0.000050
      3          6           0       -0.886980   -1.459029    0.000067
      4          6           0        0.251771   -0.653936    0.000099
      5          6           0        0.230592    0.754901    0.000038
      6          6           0       -1.017008    1.449130   -0.000065
      7          7           0        1.608241   -1.038583    0.000132
      8          6           0        1.583446    1.184749    0.000061
      9          6           0        2.430511    0.029234   -0.000140
     10          1           0        1.916286   -2.005109    0.000345
     11          1           0        1.942578    2.206493   -0.000053
     12          1           0        3.506490   -0.060987   -0.000304
     13          1           0       -3.069244   -1.305151   -0.000081
     14          1           0       -0.847200   -2.542863    0.000053
     15          1           0       -3.165038    1.137867   -0.000193
     16          1           0       -1.059935    2.533193    0.000009
 ---------------------------------------------------------------------

 The electronic state is 1-A.
 Alpha  occ. eigenvalues --  -14.16489 -10.10385 -10.09661 -10.07245 -10.06583
 Alpha  occ. eigenvalues --  -10.06328 -10.06096 -10.05854 -10.05026  -1.01525
 Alpha  occ. eigenvalues --   -0.87048  -0.80761  -0.77085  -0.73786  -0.65982
 Alpha  occ. eigenvalues --   -0.62639  -0.60726  -0.57266  -0.51320  -0.50355
 Alpha  occ. eigenvalues --   -0.46757  -0.46134  -0.46001  -0.43158  -0.42107
 Alpha  occ. eigenvalues --   -0.37592  -0.37216  -0.36713  -0.30026  -0.25499
 Alpha  occ. eigenvalues --   -0.21488
 Alpha virt. eigenvalues --    0.01153   0.06451   0.10360   0.12813   0.14741
 Alpha virt. eigenvalues --    0.18154   0.19126   0.21303   0.22064   0.22233
 Alpha virt. eigenvalues --    0.23426   0.26415   0.28813   0.31039   0.32656

 Mulliken charges:
               1
     1  C   -0.124358
     2  C   -0.153615
     3  C   -0.181148
     4  C    0.233828
     5  C    0.102534
     6  C   -0.208001
     7  N   -0.587682
     8  C   -0.204089
     9  C    0.067245
    10  H    0.346420
    11  H    0.155510
    12  H    0.166349
    13  H    0.102940
    14  H    0.090471
    15  H    0.100266
    16  H    0.093330
 Sum of Mulliken charges =  -0.00000

 Dipole moment (field-independent basis, Debye):
    X=              4.3308    Y=             -1.3947    Z=              0.0002  Tot=              4.5499
 Quadrupole moment (field-independent basis, Debye-Ang):
   XX=            -42.7969   YY=            -44.7313   ZZ=            -56.8692
   XY=             -2.6278   XZ=              0.0002   YZ=             -0.0009

 Normal termination of Gaussian 16 at Sun Feb 14 22:11:18 2021.
