 Gaussian 16, Revision C.01,
 Gaussian 16:  AS64L-G16RevC.01  3-Jul-2019

 ---------------------------------------------------------------
 # td= (nstates=6, root=1) CAM-B3LYP/6-31+G* Opt density=current
 ---------------------------------------------------------------

 -------------------
 FuncsCAM-B3LYPII1st
 -------------------
 Symbolic Z-matrix:
 Charge =  0 Multiplicity = 1

 SCF Done:  E(RCAM-B3LYP) =  -363.624676885     A.U. after   15 cycles
 Total Energy, E(TD-HF/TD-DFT) =  -363.438742952
 SCF Done:  E(RCAM-B3LYP) =  -363.620060431     A.U. after   14 cycles
 Total Energy, E(TD-HF/TD-DFT) =  -363.444428967
 SCF Done:  E(RCAM-B3LYP) =  -363.618181980     A.U. after   13 cycles
 Total Energy, E(TD-HF/TD-DFT) =  -363.445304760
 SCF Done:  E(RCAM-B3LYP) =  -363.611038430     A.U. after   14 cycles
 Total Energy, E(TD-HF/TD-DFT) =  -363.446017541
 SCF Done:  E(RCAM-B3LYP) =  -363.612742366     A.U. after   12 cycles
 Total Energy, E(TD-HF/TD-DFT) =  -363.446870001
 SCF Done:  E(RCAM-B3LYP) =  -363.610578539     A.U. after   14 cycles
 Total Energy, E(TD-HF/TD-DFT) =  -363.448065537
 SCF Done:  E(RCAM-B3LYP) =  -363.613516721     A.U. after   14 cycles
 Total Energy, E(TD-HF/TD-DFT) =  -363.448522000
 SCF Done:  E(RCAM-B3LYP) =  -363.613228728     A.U. after   11 cycles
 Total Energy, E(TD-HF/TD-DFT) =  -363.448587189
 SCF Done:  E(RCAM-B3LYP) =  -363.613483112     A.U. after   11 cycles
 Total Energy, E(TD-HF/TD-DFT) =  -363.448596638
 SCF Done:  E(RCAM-B3LYP) =  -363.613419010     A.U. after    9 cycles

 Excitation energies and oscillator strengths:

 Excited State   1:      Singlet-A      4.4850 eV  276.44 nm  f=0.1631  <S**2>=0.000
      30 -> 37         0.11449
      31 -> 32         0.68855
 This state for optimization and/or second-order correction.
 Total Energy, E(TD-HF/TD-DFT) =  -363.448597443
 Copying the excited state density for this state as the 1-particle RhoCI density.

 Excited State   2:      Singlet-A      4.9011 eV  252.97 nm  f=0.0035  <S**2>=0.000
      31 -> 33         0.68987

 Excited State   3:      Singlet-A      4.9450 eV  250.73 nm  f=0.0108  <S**2>=0.000
      30 -> 32        -0.55042
      31 -> 37         0.40846

 Excited State   4:      Singlet-A      5.5685 eV  222.65 nm  f=0.0012  <S**2>=0.000
      31 -> 34         0.63890
      31 -> 35        -0.22721

 Excited State   5:      Singlet-A      5.6255 eV  220.40 nm  f=0.0035  <S**2>=0.000
      31 -> 34         0.22126
      31 -> 35         0.62637
      31 -> 36         0.15409

 Excited State   6:      Singlet-A      6.0015 eV  206.59 nm  f=0.4983  <S**2>=0.000
      30 -> 32         0.35458
      31 -> 37         0.53660
      31 -> 39         0.22961

 Optimization completed.
    -- Stationary point found.

                         Standard orientation:
 ---------------------------------------------------------------------
 Center     Atomic      Atomic             Coordinates (Angstroms)
 Number     Number       Type             X           Y           Z
 ---------------------------------------------------------------------
      1          6           0       -2.193064    0.643571   -0.000065
      2          6           0       -2.139404   -0.733832   -0.000000
      3          6           0       -0.878614   -1.454801    0.000064
      4          6           0        0.257188   -0.656543    0.000033
      5          6           0        0.234585    0.753076   -0.000029
      6          6           0       -1.017543    1.443114   -0.000069
      7          7           0        1.607036   -1.037535    0.000064
      8          6           0        1.573868    1.186191   -0.000003
      9          6           0        2.418198    0.034335   -0.000001
     10          1           0        1.923226   -1.998153    0.000164
     11          1           0        1.932366    2.206868   -0.000040
     12          1           0        3.494189   -0.050905   -0.000042
     13          1           0       -3.060804   -1.307998    0.000013
     14          1           0       -0.843735   -2.537928    0.000071
     15          1           0       -3.161801    1.134149   -0.000100
     16          1           0       -1.063979    2.526053   -0.000091
 ---------------------------------------------------------------------

 The electronic state is 1-A.
 Alpha  occ. eigenvalues --  -14.46148 -10.30485 -10.29784 -10.27400 -10.26750
 Alpha  occ. eigenvalues --  -10.26483 -10.26302 -10.25988 -10.25162  -1.07141
 Alpha  occ. eigenvalues --   -0.92234  -0.86094  -0.82342  -0.78857  -0.70654
 Alpha  occ. eigenvalues --   -0.67329  -0.65350  -0.61451  -0.55577  -0.54410
 Alpha  occ. eigenvalues --   -0.50853  -0.50159  -0.49718  -0.47161  -0.46068
 Alpha  occ. eigenvalues --   -0.41405  -0.41073  -0.40241  -0.33616  -0.28752
 Alpha  occ. eigenvalues --   -0.24616
 Alpha virt. eigenvalues --    0.01254   0.02324   0.04254   0.04804   0.06153
 Alpha virt. eigenvalues --    0.06309   0.06356   0.08024   0.08516   0.08998
 Alpha virt. eigenvalues --    0.09011   0.09353   0.11338   0.11780   0.12995

 Mulliken charges:
               1
     1  C    0.016825
     2  C   -0.365903
     3  C   -0.399951
     4  C   -0.830385
     5  C    1.324076
     6  C   -0.768970
     7  N   -0.429808
     8  C    0.134893
     9  C   -0.291410
    10  H    0.438909
    11  H    0.219323
    12  H    0.224599
    13  H    0.179860
    14  H    0.183540
    15  H    0.177198
    16  H    0.187203
 Sum of Mulliken charges =  -0.00000

 Dipole moment (field-independent basis, Debye):
    X=              4.0999    Y=             -1.4031    Z=              0.0001  Tot=              4.3333
 Quadrupole moment (field-independent basis, Debye-Ang):
   XX=            -45.3593   YY=            -47.0207   ZZ=            -61.1555
   XY=             -2.3796   XZ=              0.0002   YZ=             -0.0005

 Normal termination of Gaussian 16 at Fri Jun 11 08:33:33 2021.
