 Gaussian 16, Revision C.01,
 Gaussian 16:  ES64L-G16RevC.01  3-Jul-2019

 ------------------------------------------------------------
 # td= (nstates=6, root=2) M06HF/6-31G(d) Opt density=current
 ------------------------------------------------------------

 -------------
 FuncsM06HF2nd
 -------------
 Symbolic Z-matrix:
 Charge =  0 Multiplicity = 1

 SCF Done:  E(RM06HF) =  -363.727600706     A.U. after   16 cycles
 Total Energy, E(TD-HF/TD-DFT) =  -363.518747804
 SCF Done:  E(RM06HF) =  -363.717394981     A.U. after   16 cycles
 Total Energy, E(TD-HF/TD-DFT) =  -363.531017225
 SCF Done:  E(RM06HF) =  -363.712082939     A.U. after   15 cycles
 Total Energy, E(TD-HF/TD-DFT) =  -363.532403269
 SCF Done:  E(RM06HF) =  -363.711735344     A.U. after   11 cycles
 Total Energy, E(TD-HF/TD-DFT) =  -363.532462973
 SCF Done:  E(RM06HF) =  -363.711698386     A.U. after   10 cycles
 Total Energy, E(TD-HF/TD-DFT) =  -363.532470478
 SCF Done:  E(RM06HF) =  -363.711790732     A.U. after    9 cycles

 Excitation energies and oscillator strengths:

 Excited State   1:      Singlet-A      5.3060 eV  233.67 nm  f=0.0096  <S**2>=0.000
      29 -> 33         0.10295
      30 -> 32         0.54293
      31 -> 33        -0.42891

 Excited State   2:      Singlet-A      4.8795 eV  254.09 nm  f=0.2094  <S**2>=0.000
      31 -> 32         0.69611
 This state for optimization and/or second-order correction.
 Total Energy, E(TD-HF/TD-DFT) =  -363.532472279
 Copying the excited state density for this state as the 1-particle RhoCI density.

 Excited State   3:      Singlet-A      6.6001 eV  187.85 nm  f=0.7046  <S**2>=0.000
      30 -> 32         0.43215
      31 -> 33         0.54251
      31 -> 35        -0.10009

 Excited State   4:      Singlet-A      7.1048 eV  174.51 nm  f=0.0004  <S**2>=0.000
      29 -> 34         0.16943
      30 -> 34        -0.10499
      31 -> 34         0.64647

 Excited State   5:      Singlet-A      7.2383 eV  171.29 nm  f=0.0470  <S**2>=0.000
      29 -> 32         0.55522
      31 -> 35        -0.41406

 Excited State   6:      Singlet-A      7.5634 eV  163.93 nm  f=0.1415  <S**2>=0.000
      29 -> 32        -0.16686
      30 -> 33         0.63492
      31 -> 35        -0.22314

 Optimization completed.
    -- Stationary point found.

                         Standard orientation:
 ---------------------------------------------------------------------
 Center     Atomic      Atomic             Coordinates (Angstroms)
 Number     Number       Type             X           Y           Z
 ---------------------------------------------------------------------
      1          6           0       -2.193707    0.634197   -0.000084
      2          6           0       -2.142370   -0.737469   -0.000020
      3          6           0       -0.866195   -1.454128    0.000047
      4          6           0        0.253034   -0.657562    0.000084
      5          6           0        0.234989    0.764269    0.000014
      6          6           0       -1.025088    1.440803   -0.000056
      7          7           0        1.609315   -1.031769    0.000098
      8          6           0        1.569124    1.193490   -0.000044
      9          6           0        2.421287    0.029168   -0.000035
     10          1           0        1.919960   -1.994148    0.000201
     11          1           0        1.928593    2.208939   -0.000159
     12          1           0        3.491843   -0.061360   -0.000030
     13          1           0       -3.054822   -1.315308   -0.000008
     14          1           0       -0.820672   -2.531877    0.000016
     15          1           0       -3.159214    1.122140   -0.000126
     16          1           0       -1.077340    2.517386   -0.000019
 ---------------------------------------------------------------------

 The electronic state is 1-A.
 Alpha  occ. eigenvalues --  -15.30727 -11.01320 -11.00195 -10.97625 -10.96922
 Alpha  occ. eigenvalues --  -10.96665 -10.96513 -10.95999 -10.95328  -1.21357
 Alpha  occ. eigenvalues --   -1.04880  -0.97823  -0.94088  -0.89797  -0.81096
 Alpha  occ. eigenvalues --   -0.77551  -0.75033  -0.71128  -0.64695  -0.63227
 Alpha  occ. eigenvalues --   -0.59046  -0.58383  -0.58018  -0.54953  -0.53254
 Alpha  occ. eigenvalues --   -0.48087  -0.47675  -0.47567  -0.39689  -0.33951
 Alpha  occ. eigenvalues --   -0.28606
 Alpha virt. eigenvalues --    0.06223   0.12394   0.16112   0.17392   0.20035
 Alpha virt. eigenvalues --    0.22731   0.24088   0.25800   0.27333   0.28409
 Alpha virt. eigenvalues --    0.30365   0.31891   0.35053   0.36586   0.38061

 Mulliken charges:
               1
     1  C   -0.211779
     2  C   -0.227932
     3  C   -0.196795
     4  C    0.219369
     5  C    0.054987
     6  C   -0.200278
     7  N   -0.699201
     8  C   -0.287070
     9  C    0.071047
    10  H    0.378108
    11  H    0.207738
    12  H    0.223377
    13  H    0.170070
    14  H    0.163355
    15  H    0.169997
    16  H    0.165007
 Sum of Mulliken charges =  -0.00000

 Dipole moment (field-independent basis, Debye):
    X=              4.1294    Y=             -1.6170    Z=              0.0001  Tot=              4.4347
 Quadrupole moment (field-independent basis, Debye-Ang):
   XX=            -41.7982   YY=            -43.7802   ZZ=            -58.3735
   XY=             -2.8051   XZ=              0.0003   YZ=             -0.0008

 Normal termination of Gaussian 16 at Sun Feb 14 22:13:52 2021.
