 Gaussian 16, Revision C.01,
 Gaussian 16:  AS64L-G16RevC.01  3-Jul-2019

 ---------------------------------------------------------
 # td= (nstates=6, root=2) M06/6-31+G* Opt density=current
 ---------------------------------------------------------

 -----------
 FuncsM062nd
 -----------
 Symbolic Z-matrix:
 Charge =  0 Multiplicity = 1

 SCF Done:  E(RM06) =  -363.550676085     A.U. after   15 cycles
 Total Energy, E(TD-HF/TD-DFT) =  -363.378809469
 SCF Done:  E(RM06) =  -363.545480567     A.U. after   14 cycles
 Total Energy, E(TD-HF/TD-DFT) =  -363.386807212
 SCF Done:  E(RM06) =  -363.541997338     A.U. after   14 cycles
 Total Energy, E(TD-HF/TD-DFT) =  -363.387856006
 SCF Done:  E(RM06) =  -363.541452400     A.U. after   12 cycles
 Total Energy, E(TD-HF/TD-DFT) =  -363.387968258
 SCF Done:  E(RM06) =  -363.541449289     A.U. after   11 cycles
 Total Energy, E(TD-HF/TD-DFT) =  -363.387988636
 SCF Done:  E(RM06) =  -363.541612834     A.U. after   10 cycles
 Total Energy, E(TD-HF/TD-DFT) =  -363.387994686
 SCF Done:  E(RM06) =  -363.541694789     A.U. after   10 cycles
 Total Energy, E(TD-HF/TD-DFT) =  -363.387996053
 SCF Done:  E(RM06) =  -363.541692903     A.U. after    9 cycles
 Total Energy, E(TD-HF/TD-DFT) =  -363.387996323
 SCF Done:  E(RM06) =  -363.541682119     A.U. after    9 cycles

 Excitation energies and oscillator strengths:

 Excited State   1:      Singlet-A      3.8907 eV  318.67 nm  f=0.0008  <S**2>=0.000
      31 -> 32         0.70437

 Excited State   2:      Singlet-A      4.1820 eV  296.47 nm  f=0.1187  <S**2>=0.000
      30 -> 38         0.10247
      31 -> 33         0.68577
 This state for optimization and/or second-order correction.
 Total Energy, E(TD-HF/TD-DFT) =  -363.387996455
 Copying the excited state density for this state as the 1-particle RhoCI density.

 Excited State   3:      Singlet-A      4.5171 eV  274.48 nm  f=0.0001  <S**2>=0.000
      31 -> 34         0.70259

 Excited State   4:      Singlet-A      4.6042 eV  269.29 nm  f=0.0003  <S**2>=0.000
      31 -> 35         0.70087

 Excited State   5:      Singlet-A      4.7154 eV  262.93 nm  f=0.0099  <S**2>=0.000
      30 -> 33         0.55052
      31 -> 38        -0.41154
      31 -> 42         0.10422

 Excited State   6:      Singlet-A      4.9091 eV  252.56 nm  f=0.0004  <S**2>=0.000
      30 -> 32         0.69460

 Optimization completed.
    -- Stationary point found.

                         Standard orientation:
 ---------------------------------------------------------------------
 Center     Atomic      Atomic             Coordinates (Angstroms)
 Number     Number       Type             X           Y           Z
 ---------------------------------------------------------------------
      1          6           0       -2.189722    0.648426    0.000301
      2          6           0       -2.136389   -0.732770    0.000290
      3          6           0       -0.888183   -1.457251   -0.000154
      4          6           0        0.254267   -0.652350   -0.000472
      5          6           0        0.230886    0.750267   -0.000478
      6          6           0       -1.013124    1.446992   -0.000333
      7          7           0        1.604322   -1.039081    0.000084
      8          6           0        1.580147    1.182441    0.000196
      9          6           0        2.420267    0.030858    0.000468
     10          1           0        1.916593   -2.002892   -0.000246
     11          1           0        1.939492    2.205835    0.000521
     12          1           0        3.498688   -0.056722   -0.000039
     13          1           0       -3.065287   -1.301617    0.000743
     14          1           0       -0.851785   -2.543569   -0.000562
     15          1           0       -3.161951    1.139130    0.000900
     16          1           0       -1.054901    2.533727   -0.000808
 ---------------------------------------------------------------------

 The electronic state is 1-A.
 Alpha  occ. eigenvalues --  -14.46237 -10.29997 -10.29543 -10.27111 -10.26508
 Alpha  occ. eigenvalues --  -10.26216 -10.26029 -10.25791 -10.24889  -1.00078
 Alpha  occ. eigenvalues --   -0.85109  -0.79033  -0.75230  -0.72010  -0.63989
 Alpha  occ. eigenvalues --   -0.60695  -0.58824  -0.55130  -0.49267  -0.48257
 Alpha  occ. eigenvalues --   -0.44967  -0.44345  -0.43964  -0.41341  -0.40335
 Alpha  occ. eigenvalues --   -0.36092  -0.35599  -0.34854  -0.28696  -0.24479
 Alpha  occ. eigenvalues --   -0.20856
 Alpha virt. eigenvalues --   -0.03258  -0.02507  -0.01330  -0.00833   0.00279
 Alpha virt. eigenvalues --    0.00579   0.02043   0.02751   0.02940   0.03415
 Alpha virt. eigenvalues --    0.03828   0.04145   0.06404   0.06805   0.06807

 Mulliken charges:
               1
     1  C   -0.066615
     2  C   -0.384549
     3  C   -0.001955
     4  C   -1.358516
     5  C    1.144920
     6  C   -0.428188
     7  N   -0.388819
     8  C    0.087604
     9  C   -0.218901
    10  H    0.439089
    11  H    0.229423
    12  H    0.226184
    13  H    0.181440
    14  H    0.178493
    15  H    0.179835
    16  H    0.180556
 Sum of Mulliken charges =   0.00000

 Dipole moment (field-independent basis, Debye):
    X=              4.1654    Y=             -1.1619    Z=             -0.0011  Tot=              4.3244
 Quadrupole moment (field-independent basis, Debye-Ang):
   XX=            -44.6234   YY=            -46.6336   ZZ=            -60.6475
   XY=             -2.0712   XZ=             -0.0049   YZ=              0.0020

 Normal termination of Gaussian 16 at Wed Jun  9 10:00:44 2021.
