 Gaussian 16, Revision C.01,
 Gaussian 16:  ES64L-G16RevC.01  3-Jul-2019

 -----------------------------------------------------------
 # td=(nstates=6, root=2) BVP86/6-31G(d) Opt density=current
 -----------------------------------------------------------

 -------------
 FuncsBVP862nd
 -------------
 Symbolic Z-matrix:
 Charge =  0 Multiplicity = 1

 SCF Done:  E(RB-VP86) =  -363.833068071     A.U. after   16 cycles
 Total Energy, E(TD-HF/TD-DFT) =  -363.658024593
 SCF Done:  E(RB-VP86) =  -363.830417737     A.U. after   13 cycles
 Total Energy, E(TD-HF/TD-DFT) =  -363.665558071
 SCF Done:  E(RB-VP86) =  -363.830142277     A.U. after   12 cycles
 Total Energy, E(TD-HF/TD-DFT) =  -363.665763757
 SCF Done:  E(RB-VP86) =  -363.829957331     A.U. after   12 cycles
 Total Energy, E(TD-HF/TD-DFT) =  -363.665835434
 SCF Done:  E(RB-VP86) =  -363.830118287     A.U. after    9 cycles
 Total Energy, E(TD-HF/TD-DFT) =  -363.665850398
 SCF Done:  E(RB-VP86) =  -363.830242718     A.U. after   11 cycles
 Total Energy, E(TD-HF/TD-DFT) =  -363.665858497
 SCF Done:  E(RB-VP86) =  -363.830233860     A.U. after    8 cycles
 Total Energy, E(TD-HF/TD-DFT) =  -363.665859253
 SCF Done:  E(RB-VP86) =  -363.830229762     A.U. after    7 cycles

 Excitation energies and oscillator strengths:

 Excited State   1:      Singlet-A      4.3463 eV  285.26 nm  f=0.0521  <S**2>=0.000
      29 -> 32         0.13116
      30 -> 32        -0.11611
      30 -> 33         0.13043
      31 -> 32         0.65571

 Excited State   2:      Singlet-A      4.4727 eV  277.20 nm  f=0.0156  <S**2>=0.000
      30 -> 32         0.54145
      31 -> 33        -0.44576
 This state for optimization and/or second-order correction.
 Total Energy, E(TD-HF/TD-DFT) =  -363.665859359
 Copying the excited state density for this state as the 1-particle RhoCI density.

 Excited State   3:      Singlet-A      5.6089 eV  221.05 nm  f=0.1435  <S**2>=0.000
      29 -> 32         0.39949
      30 -> 32        -0.23813
      30 -> 33        -0.28529
      31 -> 32        -0.10483
      31 -> 33        -0.31785
      31 -> 34         0.27454

 Excited State   4:      Singlet-A      5.8545 eV  211.77 nm  f=0.2906  <S**2>=0.000
      29 -> 32         0.30932
      29 -> 33         0.22250
      30 -> 32         0.28965
      31 -> 33         0.36441
      31 -> 34         0.34864

 Excited State   5:      Singlet-A      6.1127 eV  202.83 nm  f=0.2217  <S**2>=0.000
      28 -> 32         0.10835
      29 -> 34        -0.11620
      30 -> 32        -0.12707
      30 -> 33         0.55141
      30 -> 34        -0.28484
      31 -> 32        -0.13488
      31 -> 33        -0.15324
      31 -> 34         0.12279

 Excited State   6:      Singlet-A      6.2331 eV  198.91 nm  f=0.0000  <S**2>=0.000
      31 -> 35         0.70454

 Optimization completed.
    -- Stationary point found.

                         Standard orientation:
 ---------------------------------------------------------------------
 Center     Atomic      Atomic             Coordinates (Angstroms)
 Number     Number       Type             X           Y           Z
 ---------------------------------------------------------------------
      1          6           0       -2.186247    0.704311    0.000119
      2          6           0       -2.164214   -0.739771    0.000082
      3          6           0       -0.946145   -1.457861   -0.000050
      4          6           0        0.248680   -0.686687   -0.000190
      5          6           0        0.259819    0.781418   -0.000165
      6          6           0       -0.974460    1.477538   -0.000019
      7          7           0        1.579092   -1.094195    0.000061
      8          6           0        1.626599    1.179198   -0.000011
      9          6           0        2.425520    0.019621    0.000194
     10          1           0        1.891493   -2.060810    0.000121
     11          1           0        2.007193    2.200366   -0.000028
     12          1           0        3.506642   -0.098996   -0.000098
     13          1           0       -3.112044   -1.285228    0.000252
     14          1           0       -0.925499   -2.551222   -0.000367
     15          1           0       -3.151153    1.218638    0.000029
     16          1           0       -1.007590    2.570012   -0.000093
 ---------------------------------------------------------------------

 The electronic state is 1-A.
 Alpha  occ. eigenvalues --  -14.06969  -9.94841  -9.94763  -9.91827  -9.91318
 Alpha  occ. eigenvalues --   -9.91294  -9.91279  -9.91043  -9.90426  -0.88689
 Alpha  occ. eigenvalues --   -0.74462  -0.70107  -0.65249  -0.63815  -0.55676
 Alpha  occ. eigenvalues --   -0.53367  -0.51347  -0.47719  -0.43058  -0.41288
 Alpha  occ. eigenvalues --   -0.38130  -0.37715  -0.36360  -0.35286  -0.34294
 Alpha  occ. eigenvalues --   -0.30669  -0.28909  -0.28237  -0.24024  -0.18827
 Alpha  occ. eigenvalues --   -0.17333
 Alpha virt. eigenvalues --   -0.03863  -0.00559   0.03422   0.05409   0.08129
 Alpha virt. eigenvalues --    0.10646   0.11535   0.12931   0.13800   0.15070
 Alpha virt. eigenvalues --    0.15376   0.18001   0.20797   0.22002   0.25627

 Mulliken charges:
               1
     1  C   -0.162040
     2  C   -0.164719
     3  C   -0.179148
     4  C    0.285152
     5  C    0.139425
     6  C   -0.229308
     7  N   -0.654458
     8  C   -0.233038
     9  C    0.025126
    10  H    0.335038
    11  H    0.147285
    12  H    0.166236
    13  H    0.133261
    14  H    0.127288
    15  H    0.132537
    16  H    0.131363
 Sum of Mulliken charges =  -0.00000

 Dipole moment (field-independent basis, Debye):
    X=              2.1144    Y=             -1.4487    Z=             -0.0004  Tot=              2.5630
 Quadrupole moment (field-independent basis, Debye-Ang):
   XX=            -43.7090   YY=            -43.9148   ZZ=            -56.8672
   XY=             -2.9720   XZ=             -0.0005   YZ=             -0.0001

 Normal termination of Gaussian 16 at Wed Jun 17 10:35:11 2020.
