 Gaussian 16, Revision C.01,
 Gaussian 16:  ES64L-G16RevC.01  3-Jul-2019

 ------------------------------------------------------------
 # td= (nstates=6, root=1) M06HF/6-31G(d) Opt density=current
 ------------------------------------------------------------

 ----------
 FuncsM06HF
 ----------
 Symbolic Z-matrix:
 Charge =  0 Multiplicity = 1

 SCF Done:  E(RM06HF) =  -363.727600706     A.U. after   16 cycles
 Total Energy, E(TD-HF/TD-DFT) =  -363.528699787
 SCF Done:  E(RM06HF) =  -363.722676828     A.U. after   15 cycles
 Total Energy, E(TD-HF/TD-DFT) =  -363.533622346
 SCF Done:  E(RM06HF) =  -363.721156340     A.U. after   13 cycles
 Total Energy, E(TD-HF/TD-DFT) =  -363.534033124
 SCF Done:  E(RM06HF) =  -363.720927198     A.U. after   10 cycles
 Total Energy, E(TD-HF/TD-DFT) =  -363.534070178
 SCF Done:  E(RM06HF) =  -363.720975948     A.U. after   10 cycles

 Excitation energies and oscillator strengths:

 Excited State   1:      Singlet-A      5.0859 eV  243.78 nm  f=0.0717  <S**2>=0.000
      30 -> 32         0.46065
      30 -> 33        -0.14131
      31 -> 32         0.44235
      31 -> 33         0.24457
 This state for optimization and/or second-order correction.
 Total Energy, E(TD-HF/TD-DFT) =  -363.534073650
 Copying the excited state density for this state as the 1-particle RhoCI density.

 Excited State   2:      Singlet-A      5.6218 eV  220.54 nm  f=0.1190  <S**2>=0.000
      30 -> 32         0.40567
      30 -> 33         0.12377
      31 -> 32        -0.51292
      31 -> 33         0.22274

 Excited State   3:      Singlet-A      6.7281 eV  184.28 nm  f=0.8172  <S**2>=0.000
      30 -> 32         0.32818
      31 -> 33        -0.61328

 Excited State   4:      Singlet-A      7.0573 eV  175.68 nm  f=0.2680  <S**2>=0.000
      30 -> 33         0.66509
      31 -> 32         0.19206

 Excited State   5:      Singlet-A      7.4071 eV  167.39 nm  f=0.0007  <S**2>=0.000
      22 -> 34        -0.11592
      28 -> 34         0.15989
      29 -> 34         0.16555
      30 -> 34        -0.10486
      31 -> 34        -0.63302

 Excited State   6:      Singlet-A      7.6476 eV  162.12 nm  f=0.0361  <S**2>=0.000
      29 -> 32         0.56234
      31 -> 35         0.38505

 Optimization completed.
    -- Stationary point found.

                         Standard orientation:
 ---------------------------------------------------------------------
 Center     Atomic      Atomic             Coordinates (Angstroms)
 Number     Number       Type             X           Y           Z
 ---------------------------------------------------------------------
      1          6           0       -2.140773    0.714991    0.000008
      2          6           0       -2.169915   -0.697956    0.000037
      3          6           0       -0.964991   -1.442521    0.000001
      4          6           0        0.228030   -0.683790   -0.000022
      5          6           0        0.276440    0.775214   -0.000063
      6          6           0       -0.937469    1.481683   -0.000040
      7          7           0        1.508169   -1.095935    0.000021
      8          6           0        1.671421    1.139598   -0.000102
      9          6           0        2.411475   -0.005729    0.000126
     10          1           0        1.788441   -2.065723    0.000286
     11          1           0        2.061178    2.143520   -0.000209
     12          1           0        3.471890   -0.174614    0.000134
     13          1           0       -3.122229   -1.206000    0.000051
     14          1           0       -0.949495   -2.521402   -0.000047
     15          1           0       -3.083446    1.246492    0.000007
     16          1           0       -0.968825    2.560320   -0.000037
 ---------------------------------------------------------------------

 The electronic state is 1-A.
 Alpha  occ. eigenvalues --  -15.30188 -11.00945 -11.00488 -10.97306 -10.97014
 Alpha  occ. eigenvalues --  -10.96879 -10.96758 -10.96013 -10.95882  -1.20721
 Alpha  occ. eigenvalues --   -1.03931  -0.98773  -0.92170  -0.91373  -0.80748
 Alpha  occ. eigenvalues --   -0.76894  -0.75365  -0.70667  -0.65185  -0.62749
 Alpha  occ. eigenvalues --   -0.58438  -0.58071  -0.57906  -0.55454  -0.53777
 Alpha  occ. eigenvalues --   -0.48594  -0.46864  -0.46819  -0.40686  -0.31893
 Alpha  occ. eigenvalues --   -0.30700
 Alpha virt. eigenvalues --    0.06923   0.11871   0.16424   0.17640   0.20238
 Alpha virt. eigenvalues --    0.22609   0.23914   0.25804   0.27390   0.28259
 Alpha virt. eigenvalues --    0.30024   0.30775   0.34913   0.36797   0.38765

 Mulliken charges:
               1
     1  C   -0.192146
     2  C   -0.236312
     3  C   -0.141996
     4  C    0.253221
     5  C    0.018240
     6  C   -0.212373
     7  N   -0.757650
     8  C   -0.212313
     9  C   -0.002575
    10  H    0.365039
    11  H    0.195008
    12  H    0.206344
    13  H    0.177863
    14  H    0.171045
    15  H    0.187267
    16  H    0.181339
 Sum of Mulliken charges =  -0.00000

 Dipole moment (field-independent basis, Debye):
    X=              1.7302    Y=             -1.2427    Z=              0.0004  Tot=              2.1302
 Quadrupole moment (field-independent basis, Debye-Ang):
   XX=            -43.5532   YY=            -43.2912   ZZ=            -58.3064
   XY=             -3.9391   XZ=              0.0008   YZ=             -0.0013

 Normal termination of Gaussian 16 at Sun Feb 14 21:56:33 2021.
