 Gaussian 16, Revision C.01,
 Gaussian 16:  ES64L-G16RevC.01  3-Jul-2019

 ------------------------------------------------------------
 # td= (nstates=6, root=1) N12SX/6-31G(d) Opt density=current
 ------------------------------------------------------------

 ----------
 FuncsN12SX
 ----------
 Symbolic Z-matrix:
 Charge =  0 Multiplicity = 1

 SCF Done:  E(RN12SX) =  -363.651854015     A.U. after   15 cycles
 Total Energy, E(TD-HF/TD-DFT) =  -363.470007199
 SCF Done:  E(RN12SX) =  -363.646290355     A.U. after   12 cycles
 Total Energy, E(TD-HF/TD-DFT) =  -363.478106210
 SCF Done:  E(RN12SX) =  -363.641659160     A.U. after   12 cycles
 Total Energy, E(TD-HF/TD-DFT) =  -363.479674866
 SCF Done:  E(RN12SX) =  -363.641377478     A.U. after   11 cycles
 Total Energy, E(TD-HF/TD-DFT) =  -363.479908423
 SCF Done:  E(RN12SX) =  -363.641343554     A.U. after   10 cycles
 Total Energy, E(TD-HF/TD-DFT) =  -363.479986006
 SCF Done:  E(RN12SX) =  -363.641578339     A.U. after    9 cycles
 Total Energy, E(TD-HF/TD-DFT) =  -363.479995497
 SCF Done:  E(RN12SX) =  -363.641639957     A.U. after    8 cycles

 Excitation energies and oscillator strengths:

 Excited State   1:      Singlet-A      4.3985 eV  281.88 nm  f=0.0957  <S**2>=0.000
      29 -> 32         0.11311
      30 -> 33         0.10049
      31 -> 32         0.68229
 This state for optimization and/or second-order correction.
 Total Energy, E(TD-HF/TD-DFT) =  -363.479997361
 Copying the excited state density for this state as the 1-particle RhoCI density.

 Excited State   2:      Singlet-A      4.9682 eV  249.55 nm  f=0.0103  <S**2>=0.000
      30 -> 32         0.54483
      31 -> 33        -0.43852

 Excited State   3:      Singlet-A      6.0986 eV  203.30 nm  f=0.3270  <S**2>=0.000
      29 -> 32        -0.38187
      30 -> 32         0.28234
      30 -> 33         0.15982
      31 -> 32         0.10312
      31 -> 33         0.42413
      31 -> 34        -0.22105

 Excited State   4:      Singlet-A      6.3711 eV  194.61 nm  f=0.3436  <S**2>=0.000
      29 -> 32        -0.43488
      29 -> 33        -0.14027
      30 -> 32        -0.31393
      30 -> 33         0.13137
      31 -> 33        -0.33677
      31 -> 34        -0.24214

 Excited State   5:      Singlet-A      6.6150 eV  187.43 nm  f=0.0001  <S**2>=0.000
      31 -> 35         0.70311

 Excited State   6:      Singlet-A      6.8200 eV  181.80 nm  f=0.0201  <S**2>=0.000
      29 -> 32        -0.23941
      29 -> 33         0.14235
      30 -> 33         0.29070
      31 -> 34         0.56593

 Optimization completed.
    -- Stationary point found.

                         Standard orientation:
 ---------------------------------------------------------------------
 Center     Atomic      Atomic             Coordinates (Angstroms)
 Number     Number       Type             X           Y           Z
 ---------------------------------------------------------------------
      1          6           0       -2.185970    0.647521    0.000506
      2          6           0       -2.135397   -0.728971    0.000667
      3          6           0       -0.893331   -1.456221   -0.000296
      4          6           0        0.249288   -0.647193   -0.001063
      5          6           0        0.225800    0.748246   -0.001088
      6          6           0       -1.009577    1.447666   -0.000445
      7          7           0        1.602122   -1.033551   -0.000088
      8          6           0        1.585767    1.176430    0.000677
      9          6           0        2.423137    0.023524    0.000993
     10          1           0        1.905650   -1.992290   -0.001358
     11          1           0        1.945398    2.192411    0.002206
     12          1           0        3.493862   -0.066901   -0.000285
     13          1           0       -3.058724   -1.293528    0.001932
     14          1           0       -0.857683   -2.534120    0.000395
     15          1           0       -3.150923    1.137384    0.001171
     16          1           0       -1.050742    2.525882   -0.003152
 ---------------------------------------------------------------------

 The electronic state is 1-A.
 Alpha  occ. eigenvalues --  -14.42834 -10.26890 -10.26427 -10.24030 -10.23328
 Alpha  occ. eigenvalues --  -10.23018 -10.22898 -10.22618 -10.21782  -0.97401
 Alpha  occ. eigenvalues --   -0.82935  -0.76562  -0.73042  -0.69856  -0.61946
 Alpha  occ. eigenvalues --   -0.58473  -0.56647  -0.53173  -0.47266  -0.46238
 Alpha  occ. eigenvalues --   -0.42633  -0.42141  -0.41048  -0.39065  -0.38032
 Alpha  occ. eigenvalues --   -0.33785  -0.33099  -0.32125  -0.25723  -0.21706
 Alpha  occ. eigenvalues --   -0.17891
 Alpha virt. eigenvalues --   -0.01928   0.03129   0.06703   0.08368   0.11032
 Alpha virt. eigenvalues --    0.14015   0.15155   0.17240   0.18136   0.18224
 Alpha virt. eigenvalues --    0.19430   0.22912   0.25275   0.27589   0.29371

 Mulliken charges:
               1
     1  C   -0.161100
     2  C   -0.172921
     3  C   -0.260202
     4  C    0.289850
     5  C    0.123324
     6  C   -0.280094
     7  N   -0.625585
     8  C   -0.239844
     9  C    0.057675
    10  H    0.359981
    11  H    0.189639
    12  H    0.198224
    13  H    0.135098
    14  H    0.125833
    15  H    0.132177
    16  H    0.127945
 Sum of Mulliken charges =  -0.00000

 Dipole moment (field-independent basis, Debye):
    X=              4.6676    Y=             -1.2591    Z=             -0.0016  Tot=              4.8345
 Quadrupole moment (field-independent basis, Debye-Ang):
   XX=            -41.5605   YY=            -43.8887   ZZ=            -56.5141
   XY=             -2.4364   XZ=             -0.0080   YZ=             -0.0002

 Normal termination of Gaussian 16 at Thu Mar  4 05:13:22 2021.
