 Gaussian 16, Revision C.01,
 Gaussian 16:  ES64L-G16RevC.01  3-Jul-2019

 -----------------------------------------------------------
 # td= (nstates=6, root=1) MN15/6-31G(d) Opt density=current
 -----------------------------------------------------------

 ---------
 FuncsMN15
 ---------
 Symbolic Z-matrix:
 Charge =  0 Multiplicity = 1

 SCF Done:  E(RMN15) =  -363.374388123     A.U. after   14 cycles
 Total Energy, E(TD-HF/TD-DFT) =  -363.188151601
 SCF Done:  E(RMN15) =  -363.369794514     A.U. after   13 cycles
 Total Energy, E(TD-HF/TD-DFT) =  -363.192850669
 SCF Done:  E(RMN15) =  -363.367974993     A.U. after   12 cycles
 Total Energy, E(TD-HF/TD-DFT) =  -363.193586541
 SCF Done:  E(RMN15) =  -363.363349174     A.U. after   13 cycles
 Total Energy, E(TD-HF/TD-DFT) =  -363.194345191
 SCF Done:  E(RMN15) =  -363.362015537     A.U. after   11 cycles
 Total Energy, E(TD-HF/TD-DFT) =  -363.194914606
 SCF Done:  E(RMN15) =  -363.361308911     A.U. after   13 cycles
 Total Energy, E(TD-HF/TD-DFT) =  -363.196085786
 SCF Done:  E(RMN15) =  -363.362500913     A.U. after   12 cycles
 Total Energy, E(TD-HF/TD-DFT) =  -363.196561224
 SCF Done:  E(RMN15) =  -363.362182462     A.U. after   12 cycles
 Total Energy, E(TD-HF/TD-DFT) =  -363.196745950
 SCF Done:  E(RMN15) =  -363.362883933     A.U. after    9 cycles
 Total Energy, E(TD-HF/TD-DFT) =  -363.196761189
 SCF Done:  E(RMN15) =  -363.362624620     A.U. after    9 cycles

 Excitation energies and oscillator strengths:

 Excited State   1:      Singlet-A      4.5132 eV  274.71 nm  f=0.1305  <S**2>=0.000
      30 -> 33        -0.11317
      31 -> 32        -0.68744
 This state for optimization and/or second-order correction.
 Total Energy, E(TD-HF/TD-DFT) =  -363.196765968
 Copying the excited state density for this state as the 1-particle RhoCI density.

 Excited State   2:      Singlet-A      4.9709 eV  249.42 nm  f=0.0129  <S**2>=0.000
      30 -> 32         0.55192
      31 -> 33        -0.42581

 Excited State   3:      Singlet-A      6.1976 eV  200.05 nm  f=0.5341  <S**2>=0.000
      29 -> 32        -0.18991
      30 -> 32         0.37221
      31 -> 33         0.53243
      31 -> 34        -0.14849

 Excited State   4:      Singlet-A      6.5500 eV  189.29 nm  f=0.1177  <S**2>=0.000
      29 -> 32        -0.59882
      30 -> 32        -0.18167
      30 -> 33         0.24099
      31 -> 33        -0.15308
      31 -> 34        -0.14012

 Excited State   5:      Singlet-A      6.9083 eV  179.47 nm  f=0.0602  <S**2>=0.000
      29 -> 32        -0.18630
      31 -> 34         0.66375

 Excited State   6:      Singlet-A      7.0599 eV  175.62 nm  f=0.0001  <S**2>=0.000
      29 -> 35         0.11719
      31 -> 35         0.68928

 Optimization completed.
    -- Stationary point found.

                         Standard orientation:
 ---------------------------------------------------------------------
 Center     Atomic      Atomic             Coordinates (Angstroms)
 Number     Number       Type             X           Y           Z
 ---------------------------------------------------------------------
      1          6           0       -2.195512    0.646270   -0.000020
      2          6           0       -2.145856   -0.733150    0.000047
      3          6           0       -0.887256   -1.458468    0.000059
      4          6           0        0.251711   -0.654066   -0.000033
      5          6           0        0.231370    0.755316   -0.000093
      6          6           0       -1.016834    1.448753   -0.000097
      7          7           0        1.608253   -1.038813    0.000072
      8          6           0        1.584494    1.184292   -0.000110
      9          6           0        2.431057    0.029077    0.000174
     10          1           0        1.916478   -2.005294   -0.000183
     11          1           0        1.943387    2.206126   -0.000074
     12          1           0        3.507046   -0.061484    0.000240
     13          1           0       -3.070199   -1.305635    0.000094
     14          1           0       -0.847718   -2.542377    0.000111
     15          1           0       -3.164971    1.139350   -0.000039
     16          1           0       -1.060838    2.532871   -0.000217
 ---------------------------------------------------------------------

 The electronic state is 1-A.
 Alpha  occ. eigenvalues --  -14.16488 -10.10391 -10.09668 -10.07247 -10.06587
 Alpha  occ. eigenvalues --  -10.06339 -10.06107 -10.05858 -10.05030  -1.01515
 Alpha  occ. eigenvalues --   -0.87034  -0.80761  -0.77081  -0.73785  -0.65978
 Alpha  occ. eigenvalues --   -0.62637  -0.60729  -0.57258  -0.51326  -0.50351
 Alpha  occ. eigenvalues --   -0.46750  -0.46122  -0.45995  -0.43162  -0.42126
 Alpha  occ. eigenvalues --   -0.37588  -0.37213  -0.36704  -0.30027  -0.25500
 Alpha  occ. eigenvalues --   -0.21491
 Alpha virt. eigenvalues --    0.01146   0.06445   0.10363   0.12815   0.14743
 Alpha virt. eigenvalues --    0.18150   0.19119   0.21304   0.22055   0.22233
 Alpha virt. eigenvalues --    0.23422   0.26403   0.28783   0.31044   0.32649

 Mulliken charges:
               1
     1  C   -0.123912
     2  C   -0.153676
     3  C   -0.181375
     4  C    0.234116
     5  C    0.102763
     6  C   -0.208490
     7  N   -0.587864
     8  C   -0.203984
     9  C    0.066990
    10  H    0.346351
    11  H    0.155393
    12  H    0.166271
    13  H    0.103059
    14  H    0.090507
    15  H    0.100428
    16  H    0.093422
 Sum of Mulliken charges =  -0.00000

 Dipole moment (field-independent basis, Debye):
    X=              4.3171    Y=             -1.3942    Z=             -0.0003  Tot=              4.5367
 Quadrupole moment (field-independent basis, Debye-Ang):
   XX=            -42.8019   YY=            -44.7251   ZZ=            -56.8720
   XY=             -2.6372   XZ=             -0.0003   YZ=              0.0004

 Normal termination of Gaussian 16 at Sun Feb 14 22:44:59 2021.
