 Gaussian 16, Revision C.01,
 Gaussian 16:  AS64L-G16RevC.01  3-Jul-2019

 -----------------------------------------------------------
 # td= (nstates=6, root=2) WB97X/6-31+G* Opt density=current
 -----------------------------------------------------------

 ----------
 FuncsWB97X
 ----------
 Symbolic Z-matrix:
 Charge =  0 Multiplicity = 1

 SCF Done:  E(RwB97X) =  -363.728590267     A.U. after   16 cycles
 Total Energy, E(TD-HF/TD-DFT) =  -363.536228395
 SCF Done:  E(RwB97X) =  -363.721021209     A.U. after   15 cycles
 Total Energy, E(TD-HF/TD-DFT) =  -363.546127150
 SCF Done:  E(RwB97X) =  -363.717034174     A.U. after   15 cycles
 Total Energy, E(TD-HF/TD-DFT) =  -363.547256892
 SCF Done:  E(RwB97X) =  -363.716948892     A.U. after   12 cycles
 Total Energy, E(TD-HF/TD-DFT) =  -363.547298492
 SCF Done:  E(RwB97X) =  -363.716979219     A.U. after   12 cycles
 Total Energy, E(TD-HF/TD-DFT) =  -363.547303979
 SCF Done:  E(RwB97X) =  -363.717022727     A.U. after   10 cycles
 Total Energy, E(TD-HF/TD-DFT) =  -363.547304846
 SCF Done:  E(RwB97X) =  -363.717049072     A.U. after   10 cycles
 Total Energy, E(TD-HF/TD-DFT) =  -363.547305300
 SCF Done:  E(RwB97X) =  -363.717043488     A.U. after    9 cycles

 Excitation energies and oscillator strengths:

 Excited State   1:      Singlet-A      5.0058 eV  247.68 nm  f=0.0123  <S**2>=0.000
      30 -> 32        -0.55182
      31 -> 36         0.40041

 Excited State   2:      Singlet-A      4.6188 eV  268.43 nm  f=0.1974  <S**2>=0.000
      30 -> 36        -0.12929
      31 -> 32        -0.68631
 This state for optimization and/or second-order correction.
 Total Energy, E(TD-HF/TD-DFT) =  -363.547305458
 Copying the excited state density for this state as the 1-particle RhoCI density.

 Excited State   3:      Singlet-A      5.6207 eV  220.59 nm  f=0.0070  <S**2>=0.000
      31 -> 33         0.65323
      31 -> 40         0.15905

 Excited State   4:      Singlet-A      6.1863 eV  200.42 nm  f=0.5887  <S**2>=0.000
      30 -> 32        -0.37631
      31 -> 36        -0.54405
      31 -> 39        -0.18075

 Excited State   5:      Singlet-A      6.2741 eV  197.61 nm  f=0.0026  <S**2>=0.000
      31 -> 34         0.61166
      31 -> 35        -0.21382
      31 -> 38        -0.10062

 Excited State   6:      Singlet-A      6.2939 eV  196.99 nm  f=0.0047  <S**2>=0.000
      31 -> 33         0.14875
      31 -> 34         0.18752
      31 -> 35         0.56848
      31 -> 37         0.14837
      31 -> 40        -0.16585
      31 -> 43         0.17389

 Optimization completed.
    -- Stationary point found.

                         Standard orientation:
 ---------------------------------------------------------------------
 Center     Atomic      Atomic             Coordinates (Angstroms)
 Number     Number       Type             X           Y           Z
 ---------------------------------------------------------------------
      1          6           0       -2.196417    0.641959    0.000203
      2          6           0       -2.141403   -0.736481    0.000288
      3          6           0       -0.872469   -1.455524    0.000178
      4          6           0        0.260725   -0.661375   -0.000712
      5          6           0        0.238052    0.756938   -0.000671
      6          6           0       -1.023056    1.442309   -0.000248
      7          7           0        1.609477   -1.039003   -0.000136
      8          6           0        1.570473    1.190470    0.000359
      9          6           0        2.417363    0.038538    0.000619
     10          1           0        1.928539   -1.997673   -0.000982
     11          1           0        1.928536    2.212880    0.001213
     12          1           0        3.494850   -0.046320   -0.000231
     13          1           0       -3.061480   -1.315210    0.000495
     14          1           0       -0.837538   -2.540478    0.000715
     15          1           0       -3.167048    1.131974    0.000410
     16          1           0       -1.071804    2.526842   -0.000763
 ---------------------------------------------------------------------

 The electronic state is 1-A.
 Alpha  occ. eigenvalues --  -14.46691 -10.31649 -10.30852 -10.28537 -10.27925
 Alpha  occ. eigenvalues --  -10.27667 -10.27489 -10.27099 -10.26232  -1.11957
 Alpha  occ. eigenvalues --   -0.97003  -0.90988  -0.87151  -0.83544  -0.75139
 Alpha  occ. eigenvalues --   -0.71873  -0.69767  -0.65673  -0.59782  -0.58510
 Alpha  occ. eigenvalues --   -0.54806  -0.54161  -0.54089  -0.51026  -0.49871
 Alpha  occ. eigenvalues --   -0.45106  -0.44624  -0.44459  -0.37630  -0.32238
 Alpha  occ. eigenvalues --   -0.27870
 Alpha virt. eigenvalues --    0.04551   0.06527   0.08358   0.08884   0.09873
 Alpha virt. eigenvalues --    0.10070   0.10472   0.11939   0.12385   0.12893
 Alpha virt. eigenvalues --    0.12925   0.13390   0.15352   0.15806   0.16780

 Mulliken charges:
               1
     1  C   -0.010759
     2  C   -0.374695
     3  C   -0.281190
     4  C   -0.774782
     5  C    0.993478
     6  C   -0.683473
     7  N   -0.459744
     8  C    0.183176
     9  C   -0.311917
    10  H    0.448899
    11  H    0.235159
    12  H    0.240187
    13  H    0.196330
    14  H    0.201625
    15  H    0.193724
    16  H    0.203983
 Sum of Mulliken charges =   0.00000

 Dipole moment (field-independent basis, Debye):
    X=              3.8711    Y=             -1.5548    Z=             -0.0027  Tot=              4.1717
 Quadrupole moment (field-independent basis, Debye-Ang):
   XX=            -44.6312   YY=            -46.0506   ZZ=            -60.6308
   XY=             -2.5511   XZ=             -0.0083   YZ=              0.0022

 Normal termination of Gaussian 16 at Wed Jun  9 08:36:24 2021.
