 Gaussian 16, Revision C.01,
 Gaussian 16:  ES64L-G16RevC.01  3-Jul-2019

 -------------------------------------------------------------
 # td=(nstates=6, root=2) LC-BLYP/6-31G(d) Opt density=current
 -------------------------------------------------------------

 ----------
 ImpLC-BLYP
 ----------
 Symbolic Z-matrix:
 Charge =  0 Multiplicity = 1

 SCF Done:  E(RLC-B+HF-LYP) =  -362.719258811     A.U. after   15 cycles
 Total Energy, E(TD-HF/TD-DFT) =  -362.517222887
 SCF Done:  E(RLC-B+HF-LYP) =  -362.712332890     A.U. after   14 cycles
 Total Energy, E(TD-HF/TD-DFT) =  -362.525990859
 SCF Done:  E(RLC-B+HF-LYP) =  -362.707794785     A.U. after   13 cycles
 Total Energy, E(TD-HF/TD-DFT) =  -362.526998483
 SCF Done:  E(RLC-B+HF-LYP) =  -362.707184041     A.U. after   11 cycles
 Total Energy, E(TD-HF/TD-DFT) =  -362.527034207
 SCF Done:  E(RLC-B+HF-LYP) =  -362.707197350     A.U. after    9 cycles

 Excitation energies and oscillator strengths:

 Excited State   1:      Singlet-A      5.2362 eV  236.78 nm  f=0.0169  <S**2>=0.000
      29 -> 33         0.10278
      30 -> 32         0.55901
      31 -> 33        -0.40915

 Excited State   2:      Singlet-A      4.9024 eV  252.90 nm  f=0.2164  <S**2>=0.000
      30 -> 33         0.15107
      31 -> 32         0.68440
 This state for optimization and/or second-order correction.
 Total Energy, E(TD-HF/TD-DFT) =  -362.527036916
 Copying the excited state density for this state as the 1-particle RhoCI density.

 Excited State   3:      Singlet-A      6.7422 eV  183.89 nm  f=0.6421  <S**2>=0.000
      30 -> 32         0.40190
      31 -> 33         0.55085
      31 -> 35        -0.15442

 Excited State   4:      Singlet-A      7.1762 eV  172.77 nm  f=0.0233  <S**2>=0.000
      29 -> 32        -0.58127
      30 -> 33         0.21419
      31 -> 33         0.10919
      31 -> 35         0.29664

 Excited State   5:      Singlet-A      7.4774 eV  165.81 nm  f=0.3019  <S**2>=0.000
      30 -> 33         0.57827
      31 -> 32        -0.13394
      31 -> 35        -0.35348

 Excited State   6:      Singlet-A      7.5959 eV  163.22 nm  f=0.0002  <S**2>=0.000
      29 -> 34         0.17509
      31 -> 34         0.66331

 Optimization completed.
    -- Stationary point found.

                         Standard orientation:
 ---------------------------------------------------------------------
 Center     Atomic      Atomic             Coordinates (Angstroms)
 Number     Number       Type             X           Y           Z
 ---------------------------------------------------------------------
      1          6           0       -2.181102    0.635493    0.000021
      2          6           0       -2.129701   -0.731622    0.000027
      3          6           0       -0.863641   -1.440473   -0.000020
      4          6           0        0.258264   -0.660208    0.000019
      5          6           0        0.238336    0.756649   -0.000039
      6          6           0       -1.019346    1.427704   -0.000020
      7          7           0        1.599306   -1.034986   -0.000005
      8          6           0        1.559107    1.184387   -0.000200
      9          6           0        2.402745    0.040241    0.000167
     10          1           0        1.916274   -1.994335    0.000310
     11          1           0        1.913708    2.205748   -0.000338
     12          1           0        3.478278   -0.041066    0.000288
     13          1           0       -3.045584   -1.311919    0.000069
     14          1           0       -0.826628   -2.522790   -0.000095
     15          1           0       -3.148715    1.126759    0.000037
     16          1           0       -1.070447    2.509491    0.000043
 ---------------------------------------------------------------------

 The electronic state is 1-A.
 Alpha  occ. eigenvalues --  -14.29837 -10.19243 -10.18079 -10.15678 -10.15029
 Alpha  occ. eigenvalues --  -10.14873 -10.14629 -10.14268 -10.13389  -1.14920
 Alpha  occ. eigenvalues --   -1.00276  -0.93893  -0.89818  -0.86072  -0.77436
 Alpha  occ. eigenvalues --   -0.74004  -0.71985  -0.67767  -0.61514  -0.60386
 Alpha  occ. eigenvalues --   -0.56688  -0.56550  -0.55796  -0.52672  -0.51542
 Alpha  occ. eigenvalues --   -0.46606  -0.46170  -0.45747  -0.38778  -0.32724
 Alpha  occ. eigenvalues --   -0.28095
 Alpha virt. eigenvalues --    0.07202   0.13395   0.17736   0.18279   0.21095
 Alpha virt. eigenvalues --    0.23810   0.25133   0.27262   0.28493   0.29619
 Alpha virt. eigenvalues --    0.31515   0.34089   0.37700   0.39272   0.40687

 Mulliken charges:
               1
     1  C   -0.134344
     2  C   -0.169830
     3  C   -0.229610
     4  C    0.285980
     5  C    0.133039
     6  C   -0.242059
     7  N   -0.603873
     8  C   -0.252835
     9  C    0.034734
    10  H    0.352424
    11  H    0.162511
    12  H    0.177796
    13  H    0.125100
    14  H    0.118307
    15  H    0.123314
    16  H    0.119346
 Sum of Mulliken charges =  -0.00000

 Dipole moment (field-independent basis, Debye):
    X=              3.5448    Y=             -1.6280    Z=              0.0006  Tot=              3.9008
 Quadrupole moment (field-independent basis, Debye-Ang):
   XX=            -43.1498   YY=            -44.3657   ZZ=            -56.8559
   XY=             -2.8549   XZ=              0.0013   YZ=             -0.0013

 Normal termination of Gaussian 16 at Mon Jun 29 09:20:12 2020.
