 Gaussian 16, Revision B.01,
 Gaussian 16:  ES64L-G16RevB.01 20-Dec-2017

 -------------------------------------------------------
 # opt td=(root=2) LC-PBEPBE/6-31+g(d) geom=connectivity
 -------------------------------------------------------

 -------------------
 Title Card Required
 -------------------
 Symbolic Z-matrix:
 Charge =  0 Multiplicity = 1

 SCF Done:  E(RLC-PBE+HF-PBE) =  -362.545719151     A.U. after   16 cycles
 Total Energy, E(TD-HF/TD-DFT) =  -362.352439362
 SCF Done:  E(RLC-PBE+HF-PBE) =  -362.550983582     A.U. after   17 cycles
 Total Energy, E(TD-HF/TD-DFT) =  -362.364286129
 SCF Done:  E(RLC-PBE+HF-PBE) =  -362.550495711     A.U. after   14 cycles
 Total Energy, E(TD-HF/TD-DFT) =  -362.365155308
 SCF Done:  E(RLC-PBE+HF-PBE) =  -362.549874088     A.U. after   13 cycles
 Total Energy, E(TD-HF/TD-DFT) =  -362.365222378
 SCF Done:  E(RLC-PBE+HF-PBE) =  -362.549804358     A.U. after   12 cycles

 Excitation energies and oscillator strengths:

 Excited State   1:      Singlet-A      5.3671 eV  231.01 nm  f=0.1130  <S**2>=0.000
      30 -> 32        -0.34440
      30 -> 38        -0.18638
      31 -> 32        -0.52942
      31 -> 38         0.21408

 Excited State   2:      Singlet-A      5.0226 eV  246.85 nm  f=0.0729  <S**2>=0.000
      30 -> 32        -0.49619
      30 -> 38         0.14166
      31 -> 32         0.38110
      31 -> 38         0.23513
 This state for optimization and/or second-order correction.
 Total Energy, E(TD-HF/TD-DFT) =  -362.365227558
 Copying the excited state density for this state as the 1-particle RhoCI density.

 Excited State   3:      Singlet-A      6.2837 eV  197.31 nm  f=0.0018  <S**2>=0.000
      31 -> 33        -0.63857
      31 -> 34         0.10704
      31 -> 40        -0.12771

 Optimization completed.
    -- Stationary point found.

                         Standard orientation:
 ---------------------------------------------------------------------
 Center     Atomic      Atomic             Coordinates (Angstroms)
 Number     Number       Type             X           Y           Z
 ---------------------------------------------------------------------
      1          6           0        2.388946   -0.002036    0.000000
      2          1           0        3.457323   -0.162187   -0.000000
      3          6           0        1.649997    1.133217    0.000000
      4          1           0        2.040565    2.142545   -0.000000
      5          6           0        0.272686    0.765805   -0.000000
      6          6           0       -0.932429    1.465574    0.000000
      7          6           0       -2.126726    0.706445   -0.000000
      8          6           0       -2.150925   -0.694727    0.000000
      9          6           0       -0.954418   -1.429979    0.000000
     10          6           0        0.232422   -0.675480   -0.000000
     11          1           0       -0.965384    2.549496    0.000000
     12          1           0       -3.074203    1.239121   -0.000000
     13          1           0       -3.105929   -1.208959   -0.000000
     14          1           0       -0.941934   -2.514716   -0.000000
     15          7           0        1.503420   -1.086161   -0.000000
     16          1           0        1.788304   -2.055089    0.000000
 ---------------------------------------------------------------------

 The electronic state is 1-A.
 Alpha  occ. eigenvalues --  -14.28474 -10.17322 -10.17112 -10.14134 -10.13872
 Alpha  occ. eigenvalues --  -10.13775 -10.13517 -10.12907 -10.12578  -1.17024
 Alpha  occ. eigenvalues --   -1.01785  -0.96542  -0.90227  -0.89243  -0.79013
 Alpha  occ. eigenvalues --   -0.75135  -0.73978  -0.69158  -0.63441  -0.61469
 Alpha  occ. eigenvalues --   -0.58288  -0.57444  -0.56960  -0.55071  -0.52960
 Alpha  occ. eigenvalues --   -0.48130  -0.47407  -0.46547  -0.41287  -0.32672
 Alpha  occ. eigenvalues --   -0.31546
 Alpha virt. eigenvalues --    0.05289   0.05528   0.07251   0.07690   0.08896
 Alpha virt. eigenvalues --    0.09340   0.09949   0.11471   0.11644   0.11791
 Alpha virt. eigenvalues --    0.12333   0.12712   0.14656   0.15572   0.15654

 Mulliken charges:
               1
     1  C   -0.218863
     2  H    0.235042
     3  C    0.024530
     4  H    0.234544
     5  C    1.283750
     6  C   -0.714406
     7  C   -0.063080
     8  C   -0.471050
     9  C   -0.142451
    10  C   -1.005816
    11  H    0.228595
    12  H    0.211856
    13  H    0.220410
    14  H    0.221934
    15  N   -0.483331
    16  H    0.438337
 Sum of Mulliken charges =  -0.00000

 Dipole moment (field-independent basis, Debye):
    X=              1.5901    Y=             -1.5587    Z=             -0.0000  Tot=              2.2267
 Quadrupole moment (field-independent basis, Debye-Ang):
   XX=            -44.2500   YY=            -43.0832   ZZ=            -58.7211
   XY=             -2.8928   XZ=              0.0000   YZ=             -0.0000

 Normal termination of Gaussian 16 at Wed Jun 13 08:42:22 2018.
