 Gaussian 16, Revision B.01,
 Gaussian 16:  ES64L-G16RevB.01 20-Dec-2017

 -------------------------------------------------------
 # opt td=(root=1) LC-PBEPBE/6-31+g(d) geom=connectivity
 -------------------------------------------------------

 -------------------
 Title Card Required
 -------------------
 Symbolic Z-matrix:
 Charge =  0 Multiplicity = 1

 SCF Done:  E(RLC-PBE+HF-PBE) =  -362.545719151     A.U. after   16 cycles
 Total Energy, E(TD-HF/TD-DFT) =  -362.355639430
 SCF Done:  E(RLC-PBE+HF-PBE) =  -362.545265667     A.U. after   16 cycles
 Total Energy, E(TD-HF/TD-DFT) =  -362.365101207
 SCF Done:  E(RLC-PBE+HF-PBE) =  -362.543627582     A.U. after   15 cycles
 Total Energy, E(TD-HF/TD-DFT) =  -362.365788941
 SCF Done:  E(RLC-PBE+HF-PBE) =  -362.543152198     A.U. after   13 cycles
 Total Energy, E(TD-HF/TD-DFT) =  -362.365826550
 SCF Done:  E(RLC-PBE+HF-PBE) =  -362.543166698     A.U. after   11 cycles

 Excitation energies and oscillator strengths:

 Excited State   1:      Singlet-A      4.8256 eV  256.93 nm  f=0.2274  <S**2>=0.000
      30 -> 38         0.13367
      31 -> 32         0.68169
 This state for optimization and/or second-order correction.
 Total Energy, E(TD-HF/TD-DFT) =  -362.365829238
 Copying the excited state density for this state as the 1-particle RhoCI density.

 Excited State   2:      Singlet-A      5.2094 eV  238.00 nm  f=0.0131  <S**2>=0.000
      30 -> 32         0.54789
      31 -> 38        -0.38968

 Excited State   3:      Singlet-A      5.8605 eV  211.56 nm  f=0.0054  <S**2>=0.000
      31 -> 33         0.65801
      31 -> 40        -0.12624

 Optimization completed.
    -- Stationary point found.

                         Standard orientation:
 ---------------------------------------------------------------------
 Center     Atomic      Atomic             Coordinates (Angstroms)
 Number     Number       Type             X           Y           Z
 ---------------------------------------------------------------------
      1          6           0        2.393373    0.040495    0.000000
      2          1           0        3.471544   -0.039904    0.000000
      3          6           0        1.553212    1.182842    0.000000
      4          1           0        1.909516    2.205476    0.000001
      5          6           0        0.237194    0.752982   -0.000000
      6          6           0       -1.018354    1.428334   -0.000000
      7          6           0       -2.177503    0.634757    0.000000
      8          6           0       -2.120585   -0.732604    0.000000
      9          6           0       -0.860290   -1.442268    0.000001
     10          6           0        0.261725   -0.658326   -0.000001
     11          1           0       -1.069127    2.512094   -0.000000
     12          1           0       -3.148686    1.121727   -0.000000
     13          1           0       -3.039201   -1.312226   -0.000000
     14          1           0       -0.825559   -2.526579    0.000001
     15          7           0        1.596120   -1.029867   -0.000001
     16          1           0        1.916039   -1.988797   -0.000000
 ---------------------------------------------------------------------

 The electronic state is 1-A.
 Alpha  occ. eigenvalues --  -14.28959 -10.17685 -10.16754 -10.14433 -10.13802
 Alpha  occ. eigenvalues --  -10.13562 -10.13372 -10.12933 -10.12023  -1.17557
 Alpha  occ. eigenvalues --   -1.02418  -0.95969  -0.91756  -0.87939  -0.79274
 Alpha  occ. eigenvalues --   -0.75699  -0.73737  -0.69447  -0.62994  -0.61820
 Alpha  occ. eigenvalues --   -0.58608  -0.58221  -0.57251  -0.53995  -0.52841
 Alpha  occ. eigenvalues --   -0.47960  -0.47820  -0.47056  -0.40530  -0.34454
 Alpha  occ. eigenvalues --   -0.29794
 Alpha virt. eigenvalues --    0.04700   0.05384   0.07229   0.07802   0.08913
 Alpha virt. eigenvalues --    0.09383   0.10221   0.11548   0.11606   0.11770
 Alpha virt. eigenvalues --    0.12348   0.12707   0.14738   0.15422   0.15710

 Mulliken charges:
               1
     1  C   -0.216260
     2  H    0.236738
     3  C   -0.069102
     4  H    0.228892
     5  C    1.377717
     6  C   -0.625964
     7  C   -0.058129
     8  C   -0.469188
     9  C   -0.215647
    10  C   -1.064238
    11  H    0.227854
    12  H    0.217480
    13  H    0.216669
    14  H    0.223739
    15  N   -0.451069
    16  H    0.440507
 Sum of Mulliken charges =  -0.00000

 Dipole moment (field-independent basis, Debye):
    X=              1.6113    Y=             -1.7561    Z=              0.0000  Tot=              2.3833
 Quadrupole moment (field-independent basis, Debye-Ang):
   XX=            -43.6644   YY=            -43.5756   ZZ=            -58.7374
   XY=             -3.8287   XZ=              0.0000   YZ=              0.0000

 Normal termination of Gaussian 16 at Tue Jun 12 14:57:07 2018.
