 Gaussian 16, Revision C.01,
 Gaussian 16:  ES64L-G16RevC.01  3-Jul-2019

 ------------------------------
 #n B3LYP/6-31G(d) Opt pop=full
 ------------------------------

 -----------
 IndoleJune5
 -----------
 Symbolic Z-matrix:
 Charge =  0 Multiplicity = 1

 SCF Done:  E(RB3LYP) =  -363.579965724     A.U. after   16 cycles
 SCF Done:  E(RB3LYP) =  -363.633728021     A.U. after   14 cycles
 SCF Done:  E(RB3LYP) =  -363.718438092     A.U. after   14 cycles
 SCF Done:  E(RB3LYP) =  -363.781897613     A.U. after   14 cycles
 SCF Done:  E(RB3LYP) =  -363.807962720     A.U. after   13 cycles
 SCF Done:  E(RB3LYP) =  -363.815529548     A.U. after   13 cycles
 SCF Done:  E(RB3LYP) =  -363.815999974     A.U. after   12 cycles
 SCF Done:  E(RB3LYP) =  -363.815109096     A.U. after   12 cycles
 SCF Done:  E(RB3LYP) =  -363.816614780     A.U. after   12 cycles
 SCF Done:  E(RB3LYP) =  -363.816670986     A.U. after   10 cycles
 SCF Done:  E(RB3LYP) =  -363.816681171     A.U. after    9 cycles
 SCF Done:  E(RB3LYP) =  -363.816683348     A.U. after    9 cycles
 Optimization completed.
    -- Stationary point found.

                         Standard orientation:
 ---------------------------------------------------------------------
 Center     Atomic      Atomic             Coordinates (Angstroms)
 Number     Number       Type             X           Y           Z
 ---------------------------------------------------------------------
      1          6           0       -2.159359    0.691624    0.000113
      2          6           0       -2.135880   -0.718744   -0.000018
      3          6           0       -0.935121   -1.418818   -0.000053
      4          6           0        0.247906   -0.671966   -0.000012
      5          6           0        0.249994    0.751914   -0.000059
      6          6           0       -0.982690    1.428836   -0.000059
      7          7           0        1.566781   -1.080974   -0.000254
      8          6           0        1.625993    1.166981   -0.000103
      9          6           0        2.390379    0.030474    0.000272
     10          1           0        1.881172   -2.038536    0.000760
     11          1           0        1.998151    2.182344   -0.000370
     12          1           0        3.465333   -0.086570    0.000402
     13          1           0       -3.073240   -1.268322    0.000232
     14          1           0       -0.917889   -2.505823   -0.000155
     15          1           0       -3.116628    1.206352    0.000235
     16          1           0       -1.011693    2.515556    0.000195
 ---------------------------------------------------------------------

 The electronic state is 1-A.
 Alpha  occ. eigenvalues --  -14.37564 -10.21573 -10.21210 -10.18292 -10.17761
 Alpha  occ. eigenvalues --  -10.17754 -10.17709 -10.17274 -10.17013  -0.97256
 Alpha  occ. eigenvalues --   -0.82965  -0.77430  -0.72734  -0.70938  -0.61700
 Alpha  occ. eigenvalues --   -0.58881  -0.57431  -0.53300  -0.47694  -0.46469
 Alpha  occ. eigenvalues --   -0.43064  -0.42323  -0.41269  -0.40472  -0.38585
 Alpha  occ. eigenvalues --   -0.34949  -0.32950  -0.32558  -0.27041  -0.21498
 Alpha  occ. eigenvalues --   -0.19846
 Alpha virt. eigenvalues --   -0.00242   0.03483   0.07687   0.08022   0.10947
 Alpha virt. eigenvalues --    0.13695   0.14870   0.16885   0.18231   0.18964
 Alpha virt. eigenvalues --    0.19193   0.22855   0.25772   0.27467   0.30898

 Mulliken charges:
               1
     1  C   -0.137940
     2  C   -0.152611
     3  C   -0.162979
     4  C    0.308150
     5  C    0.120422
     6  C   -0.205366
     7  N   -0.677682
     8  C   -0.227213
     9  C    0.049083
    10  H    0.326606
    11  H    0.128472
    12  H    0.148487
    13  H    0.121222
    14  H    0.118913
    15  H    0.119017
    16  H    0.123419
 Sum of Mulliken charges =  -0.00000

 Dipole moment (field-independent basis, Debye):
    X=              1.5285    Y=             -1.5446    Z=              0.0019  Tot=              2.1730
 Quadrupole moment (field-independent basis, Debye-Ang):
   XX=            -44.2926   YY=            -43.6660   ZZ=            -56.3780
   XY=             -3.1213   XZ=              0.0028   YZ=             -0.0038

 Normal termination of Gaussian 16 at Tue Jun  2 08:52:33 2020.
