 Q-Chem 5.1, Q-Chem, Inc., Pleasanton, CA (2018)
 Q-Chem 5.1.2 for Intel X86 EM64T Linux

User input:
--------------------------------------------------------------

$molecule
0 1
C         2.1665374654   -0.6554056232    0.0000000000
C         2.1169746126    0.7536230414    0.0000000000
C         0.9078293763    1.4297941068    0.0000000000
C        -0.2602955279    0.6603427264    0.0000000000
N        -1.5823227859    1.0465645945    0.0000000000
H        -1.9138448994    1.9970952131    0.0000000000
C        -2.3831006726   -0.0753467300    0.0000000000
C        -1.6031102305   -1.1965127142    0.0000000000
C        -0.2354025284   -0.7544080528    0.0000000000
C         1.0061117308   -1.4110304737    0.0000000000
H         3.1323502333   -1.1522732729    0.0000000000
H         3.0445811710    1.3187694778    0.0000000000
H         0.8711978004    2.5159935936    0.0000000000
H        -3.4599415153    0.0224367365    0.0000000000
H        -1.9589772753   -2.2174458375    0.0000000000
H         1.0526344532   -2.4968312448    0.0000000000
$end

$rem
BASIS  =  6-31+G*
GUI  =  2
JOB_TYPE  =  Optimization
METHOD  =  wB97X
SCF_CONVERGENCE  =  8
THRESH = 12
CIS_N_ROOTS  = 6
CIS_SINGLETS = true
CIS_TRIPLETS = false
CIS_STATE_DERIV = 1
$end
--------------------------------------------------------------

   15    -363.7248352205      7.86e-09  Convergence criterion met
 Total energy in the final basis set =     -363.7248352205
   13    -363.7204039264      5.33e-09  Convergence criterion met
 Total energy in the final basis set =     -363.7204039264
   12    -363.7199977368      3.17e-09  Convergence criterion met
 Total energy in the final basis set =     -363.7199977368
   11    -363.7197951216      4.95e-09  Convergence criterion met
 Total energy in the final basis set =     -363.7197951216

             Standard Nuclear Orientation (Angstroms)
    I     Atom           X                Y                Z
 ----------------------------------------------------------------
    1      C       2.1613880365    -0.6870891960     0.0000000000
    2      C       2.1528674796     0.7354580415     0.0000000000
    3      C       0.9347515195     1.4552021505     0.0000000000
    4      C      -0.2493701496     0.6835475212     0.0000000000
    5      N      -1.5494948952     1.0749391442     0.0000000000
    6      H      -1.8605802096     2.0343482400     0.0000000000
    7      C      -2.4074269109    -0.0396993622     0.0000000000
    8      C      -1.6377105229    -1.1728577500     0.0000000000
    9      C      -0.2606805828    -0.7748533839     0.0000000000
   10      C       0.9690638020    -1.4618643195     0.0000000000
   11      H       3.1191250583    -1.2010019756     0.0000000000
   12      H       3.0974780937     1.2702658786     0.0000000000
   13      H       0.9111842976     2.5407991655     0.0000000000
   14      H      -3.4799538166     0.0936194472     0.0000000000
   15      H      -2.0116365091    -2.1889038729     0.0000000000
   16      H       1.0128848019    -2.5464992671     0.0000000000
 ----------------------------------------------------------------

    9    -363.7197964589      5.27e-09  Convergence criterion met
 Total energy in the final basis set =     -363.7197964589

         TDDFT/TDA Excitation Energies
 ---------------------------------------------------

 Excited state   1: excitation energy (eV) =    4.9987
 Total energy for state  1:                  -363.53609705
    Multiplicity: Singlet
    Trans. Mom.:  0.5113 X   0.4441 Y  -0.0000 Z
    Strength   :     0.0561655941
    D( 30) --> V(  1) amplitude =  0.7868
    D( 31) --> V(  1) amplitude = -0.2647
    D( 31) --> V(  5) amplitude =  0.4791

 Excited state   2: excitation energy (eV) =    5.3213
 Total energy for state  2:                  -363.52424131
    Multiplicity: Singlet
    Trans. Mom.:  0.6963 X  -0.6720 Y   0.0000 Z
    Strength   :     0.1220814508
    D( 30) --> V(  1) amplitude =  0.2230
    D( 30) --> V(  5) amplitude = -0.3695
    D( 31) --> V(  1) amplitude =  0.8546

 Excited state   3: excitation energy (eV) =    6.0441
 Total energy for state  3:                  -363.49767822
    Multiplicity: Singlet
    Trans. Mom.: -0.0000 X  -0.0000 Y   0.1687 Z
    Strength   :     0.0042121413
    D( 31) --> V(  2) amplitude =  0.9096

 Excited state   4: excitation energy (eV) =    6.3583
 Total energy for state  4:                  -363.48613306
    Multiplicity: Singlet
    Trans. Mom.: -0.0000 X   0.0000 Y   0.2148 Z
    Strength   :     0.0071900093
    D( 30) --> V(  2) amplitude =  0.8634
    D( 30) --> V(  9) amplitude = -0.2378
    D( 31) --> V(  3) amplitude = -0.2515

 Excited state   5: excitation energy (eV) =    6.6858
 Total energy for state  5:                  -363.47409902
    Multiplicity: Singlet
    Trans. Mom.: -0.0000 X  -0.0000 Y  -0.0237 Z
    Strength   :     0.0000923272
    D( 31) --> V(  3) amplitude = -0.3707
    D( 31) --> V(  4) amplitude =  0.7646
    D( 31) --> V( 12) amplitude =  0.2586

 Excited state   6: excitation energy (eV) =    6.7144
 Total energy for state  6:                  -363.47304546
    Multiplicity: Singlet
    Trans. Mom.: -0.0000 X  -0.0000 Y  -0.0260 Z
    Strength   :     0.0001112520
    D( 30) --> V(  2) amplitude =  0.2272
    D( 30) --> V(  3) amplitude =  0.2446
    D( 31) --> V(  3) amplitude =  0.7864
    D( 31) --> V(  4) amplitude =  0.3633

 ---------------------------------------------------

 Final energy is   -363.53609705047012
 **  OPTIMIZATION CONVERGED  **

             Orbital Energies (a.u.) and Symmetries
 --------------------------------------------------------------

 Alpha MOs, Restricted
 -- Occupied --
-14.463 -10.313 -10.312 -10.282 -10.279 -10.278 -10.277 -10.271
  1 A'    2 A'    3 A'    4 A'    5 A'    6 A'    7 A'    8 A'
-10.267  -1.114  -0.963  -0.916  -0.858  -0.847  -0.747  -0.715
  9 A'   10 A'   11 A'   12 A'   13 A'   14 A'   15 A'   16 A'
 -0.700  -0.654  -0.601  -0.581  -0.543  -0.539  -0.538  -0.518
 17 A'   18 A'   19 A'   20 A'   21 A'   22 A'    1 A"   23 A'
 -0.500  -0.457  -0.439  -0.439  -0.384  -0.305  -0.295
 24 A'   25 A'    2 A"   26 A'    3 A"    4 A"    5 A"

 Beta MOs, Restricted
 -- Occupied --
-14.463 -10.313 -10.312 -10.282 -10.279 -10.278 -10.277 -10.271
  1 A'    2 A'    3 A'    4 A'    5 A'    6 A'    7 A'    8 A'
-10.267  -1.114  -0.963  -0.916  -0.858  -0.847  -0.747  -0.715
  9 A'   10 A'   11 A'   12 A'   13 A'   14 A'   15 A'   16 A'
 -0.700  -0.654  -0.601  -0.581  -0.543  -0.539  -0.538  -0.518
 17 A'   18 A'   19 A'   20 A'   21 A'   22 A'    1 A"   23 A'
 -0.500  -0.457  -0.439  -0.439  -0.384  -0.305  -0.295
 24 A'   25 A'    2 A"   26 A'    3 A"    4 A"    5 A"

          Ground-State Mulliken Net Atomic Charges

     Atom                 Charge (a.u.)
  ----------------------------------------
      1 C                    -0.074049
      2 C                    -0.395240
      3 C                    -0.140137
      4 C                    -0.633462
      5 N                    -0.560522
      6 H                     0.429439
      7 C                    -0.239233
      8 C                     0.098245
      9 C                     0.804884
     10 C                    -0.529796
     11 H                     0.193432
     12 H                     0.199407
     13 H                     0.204109
     14 H                     0.218967
     15 H                     0.216021
     16 H                     0.207934
  ----------------------------------------
  Sum of atomic charges =     0.000000

                    Cartesian Multipole Moments
 -----------------------------------------------------------------
    Charge (ESU x 10^10)
                 0.0000
    Dipole Moment (Debye)
         X      -1.6012      Y       1.5163      Z      -0.0000
       Tot       2.2052
    Quadrupole Moments (Debye-Ang)
        XX     -44.8492     XY      -2.9759     YY     -43.9278
        XZ       0.0000     YZ       0.0000     ZZ     -59.1920

 Total job time:  2589.04s(wall), 4456.48s(cpu)
        *  Thank you very much for using Q-Chem.  Have a nice day.  *
