 Gaussian 16, Revision C.01,
 Gaussian 16:  AS64L-G16RevC.01  3-Jul-2019

 ----------------------------------------------------------------------
 # td= (nstates=6, root=1) B3LYP/6-31+G* Opt density=current EmpiricalD
 ispersion=GD3
 ----------------------------------------------------------------------

 ----------------
 FuncsB3LYP-V-1st
 ----------------
 Symbolic Z-matrix:
 Charge =  0 Multiplicity = 1

 SCF Done:  E(RB3LYP) =  -363.840468596     A.U. after   14 cycles
 Total Energy, E(TD-HF/TD-DFT) =  -363.665372768
 SCF Done:  E(RB3LYP) =  -363.834326177     A.U. after   13 cycles
 Total Energy, E(TD-HF/TD-DFT) =  -363.676339525
 SCF Done:  E(RB3LYP) =  -363.830720444     A.U. after   13 cycles
 Total Energy, E(TD-HF/TD-DFT) =  -363.677563451
 SCF Done:  E(RB3LYP) =  -363.829888124     A.U. after   11 cycles
 Total Energy, E(TD-HF/TD-DFT) =  -363.677687409
 SCF Done:  E(RB3LYP) =  -363.829900128     A.U. after   11 cycles
 Total Energy, E(TD-HF/TD-DFT) =  -363.677710277
 SCF Done:  E(RB3LYP) =  -363.830029822     A.U. after   10 cycles

 Excitation energies and oscillator strengths:

 Excited State   1:      Singlet-A      4.1447 eV  299.14 nm  f=0.0954  <S**2>=0.000
      29 -> 32         0.11138
      31 -> 32         0.68203
 This state for optimization and/or second-order correction.
 Total Energy, E(TD-HF/TD-DFT) =  -363.677713785
 Copying the excited state density for this state as the 1-particle RhoCI density.

 Excited State   2:      Singlet-A      4.4841 eV  276.50 nm  f=0.0021  <S**2>=0.000
      31 -> 33         0.70449

 Excited State   3:      Singlet-A      4.7474 eV  261.16 nm  f=0.0066  <S**2>=0.000
      30 -> 32         0.53861
      31 -> 35        -0.44018

 Excited State   4:      Singlet-A      5.0960 eV  243.30 nm  f=0.0000  <S**2>=0.000
      31 -> 34         0.70045

 Excited State   5:      Singlet-A      5.2282 eV  237.14 nm  f=0.0032  <S**2>=0.000
      31 -> 36        -0.69707

 Excited State   6:      Singlet-A      5.5250 eV  224.40 nm  f=0.0016  <S**2>=0.000
      30 -> 33         0.69640

 Optimization completed.
    -- Stationary point found.

                         Standard orientation:
 ---------------------------------------------------------------------
 Center     Atomic      Atomic             Coordinates (Angstroms)
 Number     Number       Type             X           Y           Z
 ---------------------------------------------------------------------
      1          6           0       -2.197604    0.651370    0.000010
      2          6           0       -2.145062   -0.734566    0.000048
      3          6           0       -0.896805   -1.466615    0.000052
      4          6           0        0.250692   -0.649937    0.000015
      5          6           0        0.226768    0.749537   -0.000049
      6          6           0       -1.015143    1.456750   -0.000041
      7          7           0        1.613469   -1.039518   -0.000023
      8          6           0        1.590529    1.184990   -0.000169
      9          6           0        2.432787    0.026184    0.000150
     10          1           0        1.923212   -2.003493    0.000125
     11          1           0        1.950994    2.205613   -0.000253
     12          1           0        3.509033   -0.063006    0.000294
     13          1           0       -3.072971   -1.301130    0.000066
     14          1           0       -0.859494   -2.549639   -0.000075
     15          1           0       -3.167672    1.141835   -0.000004
     16          1           0       -1.054351    2.540173   -0.000086
 ---------------------------------------------------------------------

 The electronic state is 1-A.
 Alpha  occ. eigenvalues --  -14.38952 -10.23150 -10.22739 -10.20382 -10.19679
 Alpha  occ. eigenvalues --  -10.19356 -10.19207 -10.18974 -10.18162  -0.98545
 Alpha  occ. eigenvalues --   -0.83914  -0.77698  -0.74246  -0.71081  -0.63135
 Alpha  occ. eigenvalues --   -0.59840  -0.57971  -0.54430  -0.48718  -0.47652
 Alpha  occ. eigenvalues --   -0.44137  -0.43665  -0.42300  -0.40703  -0.39609
 Alpha  occ. eigenvalues --   -0.35577  -0.34890  -0.33636  -0.27473  -0.23621
 Alpha  occ. eigenvalues --   -0.19874
 Alpha virt. eigenvalues --   -0.03061  -0.00495   0.01469   0.01614   0.02155
 Alpha virt. eigenvalues --    0.03545   0.03723   0.03931   0.05700   0.05993
 Alpha virt. eigenvalues --    0.06418   0.06493   0.08407   0.08641   0.10437

 Mulliken charges:
               1
     1  C    0.005162
     2  C   -0.324179
     3  C   -0.502506
     4  C   -0.917619
     5  C    1.521894
     6  C   -0.776270
     7  N   -0.400339
     8  C    0.081552
     9  C   -0.237252
    10  H    0.433215
    11  H    0.216011
    12  H    0.217653
    13  H    0.168761
    14  H    0.172054
    15  H    0.166570
    16  H    0.175293
 Sum of Mulliken charges =  -0.00000

 Dipole moment (field-independent basis, Debye):
    X=              4.8429    Y=             -1.1348    Z=             -0.0006  Tot=              4.9741
 Quadrupole moment (field-independent basis, Debye-Ang):
   XX=            -44.5825   YY=            -47.4503   ZZ=            -60.8698
   XY=             -2.1423   XZ=              0.0001   YZ=              0.0003

 Normal termination of Gaussian 16 at Thu Jun 24 14:13:34 2021.
