 Gaussian 16, Revision C.01,
 Gaussian 16:  AS64L-G16RevC.01  3-Jul-2019

 --------------------------------------------------------------
 # td= (nstates=6, root=1) MPW1PW91/6-31+G* Opt density=current
 --------------------------------------------------------------

 -------------------
 FuncsMPW1PW91-V-1st
 -------------------
 Symbolic Z-matrix:
 Charge =  0 Multiplicity = 1

 SCF Done:  E(RmPW1PW91) =  -363.747106292     A.U. after   14 cycles
 Total Energy, E(TD-HF/TD-DFT) =  -363.567922094
 SCF Done:  E(RmPW1PW91) =  -363.740285548     A.U. after   12 cycles
 Total Energy, E(TD-HF/TD-DFT) =  -363.577605555
 SCF Done:  E(RmPW1PW91) =  -363.736631521     A.U. after   12 cycles
 Total Energy, E(TD-HF/TD-DFT) =  -363.578787638
 SCF Done:  E(RmPW1PW91) =  -363.736166777     A.U. after   11 cycles
 Total Energy, E(TD-HF/TD-DFT) =  -363.578895761
 SCF Done:  E(RmPW1PW91) =  -363.736204761     A.U. after   10 cycles
 Total Energy, E(TD-HF/TD-DFT) =  -363.578918927
 SCF Done:  E(RmPW1PW91) =  -363.736343986     A.U. after   10 cycles

 Excitation energies and oscillator strengths:

 Excited State   1:      Singlet-A      4.2837 eV  289.43 nm  f=0.1069  <S**2>=0.000
      29 -> 32         0.10151
      31 -> 32         0.68468
 This state for optimization and/or second-order correction.
 Total Energy, E(TD-HF/TD-DFT) =  -363.578921384
 Copying the excited state density for this state as the 1-particle RhoCI density.

 Excited State   2:      Singlet-A      4.6665 eV  265.69 nm  f=0.0020  <S**2>=0.000
      31 -> 33         0.70362

 Excited State   3:      Singlet-A      4.8727 eV  254.44 nm  f=0.0082  <S**2>=0.000
      30 -> 32         0.54481
      31 -> 35        -0.43263

 Excited State   4:      Singlet-A      5.2956 eV  234.13 nm  f=0.0001  <S**2>=0.000
      31 -> 34         0.69778

 Excited State   5:      Singlet-A      5.4093 eV  229.20 nm  f=0.0024  <S**2>=0.000
      31 -> 36        -0.69473

 Excited State   6:      Singlet-A      5.7302 eV  216.37 nm  f=0.0015  <S**2>=0.000
      30 -> 33         0.69139
      31 -> 37         0.10755

 Optimization completed.
    -- Stationary point found.

                         Standard orientation:
 ---------------------------------------------------------------------
 Center     Atomic      Atomic             Coordinates (Angstroms)
 Number     Number       Type             X           Y           Z
 ---------------------------------------------------------------------
      1          6           0       -2.189956    0.648104   -0.000039
      2          6           0       -2.136409   -0.732807    0.000013
      3          6           0       -0.890707   -1.460781    0.000054
      4          6           0        0.252247   -0.648975    0.000035
      5          6           0        0.227352    0.749420   -0.000025
      6          6           0       -1.012928    1.451096   -0.000056
      7          7           0        1.605134   -1.034494    0.000037
      8          6           0        1.584125    1.181224   -0.000069
      9          6           0        2.422723    0.025326    0.000045
     10          1           0        1.914676   -1.995883    0.000162
     11          1           0        1.946723    2.200046   -0.000139
     12          1           0        3.497677   -0.065760    0.000077
     13          1           0       -3.062703   -1.299517    0.000022
     14          1           0       -0.855879   -2.543086    0.000012
     15          1           0       -3.159616    1.136541   -0.000070
     16          1           0       -1.055504    2.533474   -0.000076
 ---------------------------------------------------------------------

 The electronic state is 1-A.
 Alpha  occ. eigenvalues --  -14.46704 -10.29050 -10.28651 -10.26292 -10.25604
 Alpha  occ. eigenvalues --  -10.25255 -10.25160 -10.24837 -10.24044  -1.01692
 Alpha  occ. eigenvalues --   -0.86539  -0.80174  -0.76570  -0.73277  -0.65104
 Alpha  occ. eigenvalues --   -0.61650  -0.59785  -0.56064  -0.50184  -0.49029
 Alpha  occ. eigenvalues --   -0.45471  -0.44924  -0.44021  -0.41836  -0.40778
 Alpha  occ. eigenvalues --   -0.36501  -0.35876  -0.34969  -0.28603  -0.24489
 Alpha  occ. eigenvalues --   -0.20653
 Alpha virt. eigenvalues --   -0.02413   0.00017   0.02009   0.02435   0.02616
 Alpha virt. eigenvalues --    0.04044   0.04181   0.04764   0.06264   0.06408
 Alpha virt. eigenvalues --    0.06919   0.07085   0.08958   0.09148   0.10966

 Mulliken charges:
               1
     1  C   -0.038723
     2  C   -0.403140
     3  C   -0.439190
     4  C   -1.286098
     5  C    1.803613
     6  C   -0.783480
     7  N   -0.347083
     8  C   -0.049367
     9  C   -0.216607
    10  H    0.456895
    11  H    0.246330
    12  H    0.243632
    13  H    0.201480
    14  H    0.204215
    15  H    0.199546
    16  H    0.207977
 Sum of Mulliken charges =  -0.00000

 Dipole moment (field-independent basis, Debye):
    X=              4.7209    Y=             -1.2032    Z=             -0.0001  Tot=              4.8718
 Quadrupole moment (field-independent basis, Debye-Ang):
   XX=            -43.6534   YY=            -46.3041   ZZ=            -60.4910
   XY=             -2.2054   XZ=              0.0003   YZ=             -0.0003

 Normal termination of Gaussian 16 at Mon Jun 14 12:34:09 2021.
