 Gaussian 16, Revision C.01,
 Gaussian 16:  ES64L-G16RevC.01  3-Jul-2019

 ---------------------------------------------------------------
 # td= (nstates=6, root=1) SOGGA11X/6-31G(d) Opt density=current
 ---------------------------------------------------------------

 -------------
 FuncsSOGGA11X
 -------------
 Symbolic Z-matrix:
 Charge =  0 Multiplicity = 1

 SCF Done:  E(RSOGGA11X) =  -363.717358798     A.U. after   15 cycles
 Total Energy, E(TD-HF/TD-DFT) =  -363.525933693
 SCF Done:  E(RSOGGA11X) =  -363.712231972     A.U. after   13 cycles
 Total Energy, E(TD-HF/TD-DFT) =  -363.532904632
 SCF Done:  E(RSOGGA11X) =  -363.707027478     A.U. after   13 cycles
 Total Energy, E(TD-HF/TD-DFT) =  -363.535125442
 SCF Done:  E(RSOGGA11X) =  -363.704825271     A.U. after   12 cycles
 Total Energy, E(TD-HF/TD-DFT) =  -363.535852936
 SCF Done:  E(RSOGGA11X) =  -363.705224446     A.U. after   12 cycles
 Total Energy, E(TD-HF/TD-DFT) =  -363.536222668
 SCF Done:  E(RSOGGA11X) =  -363.706005093     A.U. after   10 cycles
 Total Energy, E(TD-HF/TD-DFT) =  -363.536345104
 SCF Done:  E(RSOGGA11X) =  -363.706358683     A.U. after   10 cycles
 Total Energy, E(TD-HF/TD-DFT) =  -363.536362029
 SCF Done:  E(RSOGGA11X) =  -363.706409740     A.U. after    8 cycles
 Total Energy, E(TD-HF/TD-DFT) =  -363.536365307
 SCF Done:  E(RSOGGA11X) =  -363.706389344     A.U. after    7 cycles

 Excitation energies and oscillator strengths:

 Excited State   1:      Singlet-A      4.6266 eV  267.98 nm  f=0.1402  <S**2>=0.000
      30 -> 33         0.12173
      31 -> 32         0.68731
 This state for optimization and/or second-order correction.
 Total Energy, E(TD-HF/TD-DFT) =  -363.536365717
 Copying the excited state density for this state as the 1-particle RhoCI density.

 Excited State   2:      Singlet-A      5.1217 eV  242.07 nm  f=0.0154  <S**2>=0.000
      30 -> 32         0.55704
      31 -> 33        -0.42086

 Excited State   3:      Singlet-A      6.3926 eV  193.95 nm  f=0.5253  <S**2>=0.000
      29 -> 32        -0.22377
      30 -> 32         0.35529
      31 -> 33         0.52421
      31 -> 34        -0.16142

 Excited State   4:      Singlet-A      6.7019 eV  185.00 nm  f=0.1624  <S**2>=0.000
      29 -> 32        -0.58721
      30 -> 32        -0.20108
      30 -> 33         0.24349
      31 -> 33        -0.18930
      31 -> 34        -0.11567

 Excited State   5:      Singlet-A      6.9573 eV  178.21 nm  f=0.0002  <S**2>=0.000
      29 -> 35         0.10433
      31 -> 35         0.69438

 Excited State   6:      Singlet-A      7.0891 eV  174.89 nm  f=0.0635  <S**2>=0.000
      29 -> 32        -0.15140
      29 -> 33         0.10069
      31 -> 34         0.66574

 Optimization completed.
    -- Stationary point found.

                         Standard orientation:
 ---------------------------------------------------------------------
 Center     Atomic      Atomic             Coordinates (Angstroms)
 Number     Number       Type             X           Y           Z
 ---------------------------------------------------------------------
      1          6           0       -2.196260    0.646619    0.000420
      2          6           0       -2.145505   -0.733107    0.000500
      3          6           0       -0.886723   -1.458075   -0.000268
      4          6           0        0.254815   -0.655556   -0.000766
      5          6           0        0.233182    0.756088   -0.000757
      6          6           0       -1.017196    1.448247   -0.000476
      7          7           0        1.605659   -1.037057   -0.000060
      8          6           0        1.585352    1.185108    0.000598
      9          6           0        2.429121    0.026959    0.000728
     10          1           0        1.915339   -1.997897   -0.001380
     11          1           0        1.948046    2.204970    0.001822
     12          1           0        3.503517   -0.069087   -0.000339
     13          1           0       -3.068957   -1.305326    0.001401
     14          1           0       -0.850622   -2.541233    0.000598
     15          1           0       -3.165161    1.138980    0.001098
     16          1           0       -1.062498    2.531292   -0.002658
 ---------------------------------------------------------------------

 The electronic state is 1-A.
 Alpha  occ. eigenvalues --  -14.70272 -10.49222 -10.48426 -10.46081 -10.45428
 Alpha  occ. eigenvalues --  -10.45109 -10.44944 -10.44604 -10.43863  -1.07957
 Alpha  occ. eigenvalues --   -0.92095  -0.85584  -0.81811  -0.78237  -0.69337
 Alpha  occ. eigenvalues --   -0.65750  -0.63716  -0.59447  -0.53617  -0.52232
 Alpha  occ. eigenvalues --   -0.48300  -0.47699  -0.46792  -0.44634  -0.43583
 Alpha  occ. eigenvalues --   -0.38868  -0.38387  -0.37111  -0.30376  -0.25679
 Alpha  occ. eigenvalues --   -0.21642
 Alpha virt. eigenvalues --    0.00782   0.06279   0.10238   0.11391   0.14277
 Alpha virt. eigenvalues --    0.17217   0.18528   0.20473   0.21620   0.22544
 Alpha virt. eigenvalues --    0.22560   0.26069   0.28837   0.30410   0.32400

 Mulliken charges:
               1
     1  C   -0.191089
     2  C   -0.203966
     3  C   -0.282423
     4  C    0.292778
     5  C    0.036520
     6  C   -0.272517
     7  N   -0.671662
     8  C   -0.249933
     9  C    0.031780
    10  H    0.387897
    11  H    0.220998
    12  H    0.226765
    13  H    0.170093
    14  H    0.168168
    15  H    0.167965
    16  H    0.168627
 Sum of Mulliken charges =  -0.00000

 Dipole moment (field-independent basis, Debye):
    X=              4.2030    Y=             -1.3523    Z=             -0.0016  Tot=              4.4152
 Quadrupole moment (field-independent basis, Debye-Ang):
   XX=            -42.4055   YY=            -44.3167   ZZ=            -57.9261
   XY=             -2.5398   XZ=             -0.0085   YZ=              0.0005

 Normal termination of Gaussian 16 at Thu Mar  4 05:10:35 2021.
