 Gaussian 16, Revision C.01,
 Gaussian 16:  AS64L-G16RevC.01  3-Jul-2019

 --------------------------------------------------------------
 # td= (nstates=6, root=3) SOGGA11X/6-31+G* Opt density=current
 --------------------------------------------------------------

 -------------------
 FuncsSOGGA11X-V-3rd
 -------------------
 Symbolic Z-matrix:
 Charge =  0 Multiplicity = 1

 SCF Done:  E(RSOGGA11X) =  -363.729258520     A.U. after   15 cycles
 Total Energy, E(TD-HF/TD-DFT) =  -363.539616281
 SCF Done:  E(RSOGGA11X) =  -363.725259518     A.U. after   12 cycles
 Total Energy, E(TD-HF/TD-DFT) =  -363.545639606
 SCF Done:  E(RSOGGA11X) =  -363.724971657     A.U. after   12 cycles
 Total Energy, E(TD-HF/TD-DFT) =  -363.546168782
 SCF Done:  E(RSOGGA11X) =  -363.672399425     A.U. after   16 cycles
 Total Energy, E(TD-HF/TD-DFT) =  -363.509381980
 SCF Done:  E(RSOGGA11X) =  -363.682456470     A.U. after   14 cycles
 Total Energy, E(TD-HF/TD-DFT) =  -363.520253053
 SCF Done:  E(RSOGGA11X) =  -363.723823496     A.U. after   10 cycles
 Total Energy, E(TD-HF/TD-DFT) =  -363.546503547
 SCF Done:  E(RSOGGA11X) =  -363.722304451     A.U. after   14 cycles
 Total Energy, E(TD-HF/TD-DFT) =  -363.539543122
 SCF Done:  E(RSOGGA11X) =  -363.722526738     A.U. after   13 cycles
 Total Energy, E(TD-HF/TD-DFT) =  -363.548436220
 SCF Done:  E(RSOGGA11X) =  -363.720647322     A.U. after   13 cycles
 Total Energy, E(TD-HF/TD-DFT) =  -363.549568578
 SCF Done:  E(RSOGGA11X) =  -363.715484542     A.U. after   13 cycles
 Total Energy, E(TD-HF/TD-DFT) =  -363.550905479
 Total Energy, E(TD-HF/TD-DFT) =  -363.552870786
 Total Energy, E(TD-HF/TD-DFT) =  -363.554469232
 Total Energy, E(TD-HF/TD-DFT) =  -363.554498504
 Total Energy, E(TD-HF/TD-DFT) =  -363.544256857
 Total Energy, E(TD-HF/TD-DFT) =  -363.550031992
 Total Energy, E(TD-HF/TD-DFT) =  -363.554519944
 SCF Done:  E(RSOGGA11X) =  -363.713848040     A.U. after   13 cycles
 Total Energy, E(TD-HF/TD-DFT) =  -363.553411809
 SCF Done:  E(RSOGGA11X) =  -363.716843075     A.U. after   13 cycles
 Total Energy, E(TD-HF/TD-DFT) =  -363.554356209
 SCF Done:  E(RSOGGA11X) =  -363.719067898     A.U. after    7 cycles
 Total Energy, E(TD-HF/TD-DFT) =  -363.554541854
 SCF Done:  E(RSOGGA11X) =  -363.718400208     A.U. after   12 cycles
 Total Energy, E(TD-HF/TD-DFT) =  -363.554543171
 SCF Done:  E(RSOGGA11X) =  -363.717838561     A.U. after   12 cycles
 Total Energy, E(TD-HF/TD-DFT) =  -363.554513929
 SCF Done:  E(RSOGGA11X) =  -363.686258126     A.U. after   15 cycles
 Total Energy, E(TD-HF/TD-DFT) =  -363.504860169
 SCF Done:  E(RSOGGA11X) =  -363.718975832     A.U. after   12 cycles
 Total Energy, E(TD-HF/TD-DFT) =  -363.554402457
 SCF Done:  E(RSOGGA11X) =  -363.718561635     A.U. after    6 cycles
 Total Energy, E(TD-HF/TD-DFT) =  -363.554552614
 SCF Done:  E(RSOGGA11X) =  -363.718635327     A.U. after   11 cycles
 Total Energy, E(TD-HF/TD-DFT) =  -363.554579880
 SCF Done:  E(RSOGGA11X) =  -363.718650364     A.U. after   10 cycles

 Excitation energies and oscillator strengths:

 Excited State   1:      Singlet-A      4.9995 eV  247.99 nm  f=0.0108  <S**2>=0.000
      30 -> 32         0.55196
      31 -> 36        -0.41667

 Excited State   2:      Singlet-A      4.7645 eV  260.23 nm  f=0.0025  <S**2>=0.000
      31 -> 33        -0.69910

 Excited State   3:      Singlet-A      4.4645 eV  277.71 nm  f=0.1526  <S**2>=0.000
      30 -> 36        -0.11083
      31 -> 32        -0.68886
 This state for optimization and/or second-order correction.
 Total Energy, E(TD-HF/TD-DFT) =  -363.554581269
 Copying the excited state density for this state as the 1-particle RhoCI density.

 Excited State   4:      Singlet-A      5.4247 eV  228.55 nm  f=0.0005  <S**2>=0.000
      31 -> 34        -0.68631

 Excited State   5:      Singlet-A      5.5226 eV  224.50 nm  f=0.0023  <S**2>=0.000
      31 -> 35        -0.67895
      31 -> 37        -0.12332

 Excited State   6:      Singlet-A      5.8672 eV  211.32 nm  f=0.0016  <S**2>=0.000
      30 -> 33        -0.66596
      31 -> 37        -0.14670

 Optimization completed.
    -- Stationary point found.

                         Standard orientation:
 ---------------------------------------------------------------------
 Center     Atomic      Atomic             Coordinates (Angstroms)
 Number     Number       Type             X           Y           Z
 ---------------------------------------------------------------------
      1          6           0       -2.197096    0.646939   -0.000129
      2          6           0       -2.142221   -0.736189   -0.000066
      3          6           0       -0.883747   -1.460852    0.000028
      4          6           0        0.258326   -0.656322   -0.000049
      5          6           0        0.233647    0.754452   -0.000106
      6          6           0       -1.019427    1.449379   -0.000118
      7          7           0        1.608020   -1.037204    0.000066
      8          6           0        1.580690    1.188100    0.000163
      9          6           0        2.424076    0.030257    0.000195
     10          1           0        1.922814   -1.996980    0.000010
     11          1           0        1.943142    2.208395    0.000255
     12          1           0        3.500151   -0.061517    0.000106
     13          1           0       -3.066195   -1.308355   -0.000069
     14          1           0       -0.848773   -2.545045   -0.000004
     15          1           0       -3.167731    1.136002   -0.000166
     16          1           0       -1.065037    2.533343   -0.000105
 ---------------------------------------------------------------------

 The electronic state is 1-A.
 Alpha  occ. eigenvalues --  -14.71341 -10.50106 -10.49418 -10.47082 -10.46446
 Alpha  occ. eigenvalues --  -10.46090 -10.45942 -10.45582 -10.44850  -1.09098
 Alpha  occ. eigenvalues --   -0.93065  -0.86623  -0.82760  -0.79146  -0.70209
 Alpha  occ. eigenvalues --   -0.66687  -0.64631  -0.60322  -0.54454  -0.53030
 Alpha  occ. eigenvalues --   -0.49236  -0.48628  -0.47763  -0.45538  -0.44421
 Alpha  occ. eigenvalues --   -0.39762  -0.39320  -0.37974  -0.31333  -0.26619
 Alpha  occ. eigenvalues --   -0.22601
 Alpha virt. eigenvalues --   -0.00821   0.00425   0.02477   0.03042   0.04203
 Alpha virt. eigenvalues --    0.04325   0.04545   0.06139   0.06659   0.07068
 Alpha virt. eigenvalues --    0.07153   0.07575   0.09660   0.09969   0.11169

 Mulliken charges:
               1
     1  C   -0.097547
     2  C   -0.380138
     3  C   -0.215496
     4  C   -1.079701
     5  C    1.182947
     6  C   -0.642335
     7  N   -0.439139
     8  C    0.038253
     9  C   -0.246278
    10  H    0.469936
    11  H    0.262204
    12  H    0.260345
    13  H    0.218112
    14  H    0.225319
    15  H    0.216385
    16  H    0.227133
 Sum of Mulliken charges =  -0.00000

 Dipole moment (field-independent basis, Debye):
    X=              4.1937    Y=             -1.2889    Z=             -0.0002  Tot=              4.3873
 Quadrupole moment (field-independent basis, Debye-Ang):
   XX=            -44.5731   YY=            -46.5999   ZZ=            -61.6632
   XY=             -2.2001   XZ=             -0.0002   YZ=              0.0008

 Normal termination of Gaussian 16 at Wed Jun 16 09:51:15 2021.
