 Gaussian 16, Revision C.01,
 Gaussian 16:  AS64L-G16RevC.01  3-Jul-2019

 ------------------------------------------------------------
 # td= (nstates=6, root=1) WB97XD/6-31+G* Opt density=current
 ------------------------------------------------------------

 -----------------
 FuncsWB97XD-V-1st
 -----------------
 Symbolic Z-matrix:
 Charge =  0 Multiplicity = 1

 SCF Done:  E(RwB97XD) =  -363.703484374     A.U. after   15 cycles
 Total Energy, E(TD-HF/TD-DFT) =  -363.516851508
 SCF Done:  E(RwB97XD) =  -363.698972339     A.U. after   14 cycles
 Total Energy, E(TD-HF/TD-DFT) =  -363.522670262
 SCF Done:  E(RwB97XD) =  -363.697715461     A.U. after   14 cycles
 Total Energy, E(TD-HF/TD-DFT) =  -363.523171027
 SCF Done:  E(RwB97XD) =  -363.696233114     A.U. after   13 cycles
 Total Energy, E(TD-HF/TD-DFT) =  -363.523510945
 SCF Done:  E(RwB97XD) =  -363.690342282     A.U. after   14 cycles
 Total Energy, E(TD-HF/TD-DFT) =  -363.523564369
 SCF Done:  E(RwB97XD) =  -363.693457990     A.U. after   14 cycles
 Total Energy, E(TD-HF/TD-DFT) =  -363.524471458
 SCF Done:  E(RwB97XD) =  -363.688125179     A.U. after   15 cycles
 Total Energy, E(TD-HF/TD-DFT) =  -363.523969058
 SCF Done:  E(RwB97XD) =  -363.694962039     A.U. after   14 cycles
 Total Energy, E(TD-HF/TD-DFT) =  -363.526387031
 SCF Done:  E(RwB97XD) =  -363.678592008     A.U. after   14 cycles
 Total Energy, E(TD-HF/TD-DFT) =  -363.523176620
 SCF Done:  E(RwB97XD) =  -363.690334931     A.U. after   14 cycles
 Total Energy, E(TD-HF/TD-DFT) =  -363.526231636
 SCF Done:  E(RwB97XD) =  -363.693253852     A.U. after    7 cycles
 Total Energy, E(TD-HF/TD-DFT) =  -363.526582039
 SCF Done:  E(RwB97XD) =  -363.692214264     A.U. after   13 cycles
 Total Energy, E(TD-HF/TD-DFT) =  -363.526744672
 SCF Done:  E(RwB97XD) =  -363.692065257     A.U. after   12 cycles
 Total Energy, E(TD-HF/TD-DFT) =  -363.526767808
 SCF Done:  E(RwB97XD) =  -363.692192128     A.U. after   12 cycles

 Excitation energies and oscillator strengths:

 Excited State   1:      Singlet-A      4.5013 eV  275.44 nm  f=0.1602  <S**2>=0.000
      30 -> 36        -0.11692
      31 -> 32        -0.68804
 This state for optimization and/or second-order correction.
 Total Energy, E(TD-HF/TD-DFT) =  -363.526772082
 Copying the excited state density for this state as the 1-particle RhoCI density.

 Excited State   2:      Singlet-A      4.9497 eV  250.49 nm  f=0.0122  <S**2>=0.000
      30 -> 32         0.55385
      31 -> 36        -0.40734

 Excited State   3:      Singlet-A      5.2965 eV  234.09 nm  f=0.0049  <S**2>=0.000
      31 -> 33         0.67590
      31 -> 40        -0.11100

 Excited State   4:      Singlet-A      5.9443 eV  208.58 nm  f=0.0034  <S**2>=0.000
      31 -> 34         0.57366
      31 -> 35        -0.33171
      31 -> 38        -0.10604

 Excited State   5:      Singlet-A      5.9988 eV  206.68 nm  f=0.0026  <S**2>=0.000
      31 -> 34        -0.32545
      31 -> 35        -0.54883
      31 -> 37        -0.15559
      31 -> 40        -0.10166
      31 -> 43        -0.14176

 Excited State   6:      Singlet-A      6.0600 eV  204.59 nm  f=0.5785  <S**2>=0.000
      30 -> 32         0.36816
      31 -> 36         0.54482
      31 -> 39         0.19357

 Optimization completed.
    -- Stationary point found.

                         Standard orientation:
 ---------------------------------------------------------------------
 Center     Atomic      Atomic             Coordinates (Angstroms)
 Number     Number       Type             X           Y           Z
 ---------------------------------------------------------------------
      1          6           0       -2.194077    0.644336   -0.000074
      2          6           0       -2.140838   -0.734052    0.000075
      3          6           0       -0.879031   -1.457226    0.000144
      4          6           0        0.257054   -0.656714   -0.000120
      5          6           0        0.234455    0.753852   -0.000182
      6          6           0       -1.016851    1.445922   -0.000234
      7          7           0        1.606389   -1.037896    0.000168
      8          6           0        1.575469    1.186527    0.000082
      9          6           0        2.419926    0.033204    0.000149
     10          1           0        1.920776   -1.998076   -0.000720
     11          1           0        1.934488    2.207242    0.000328
     12          1           0        3.495735   -0.054397    0.000175
     13          1           0       -3.062692   -1.308268    0.000188
     14          1           0       -0.843891   -2.540777    0.000432
     15          1           0       -3.163218    1.135143   -0.000117
     16          1           0       -1.062562    2.529312   -0.000516
 ---------------------------------------------------------------------

 The electronic state is 1-A.
 Alpha  occ. eigenvalues --  -14.50607 -10.34269 -10.33638 -10.31265 -10.30625
 Alpha  occ. eigenvalues --  -10.30348 -10.30190 -10.29845 -10.29010  -1.08953
 Alpha  occ. eigenvalues --   -0.93890  -0.87830  -0.84102  -0.80640  -0.72460
 Alpha  occ. eigenvalues --   -0.69152  -0.67126  -0.63234  -0.57428  -0.56177
 Alpha  occ. eigenvalues --   -0.52561  -0.51906  -0.51457  -0.48886  -0.47776
 Alpha  occ. eigenvalues --   -0.43126  -0.42798  -0.42143  -0.35599  -0.30737
 Alpha  occ. eigenvalues --   -0.26612
 Alpha virt. eigenvalues --    0.03616   0.05664   0.07511   0.08054   0.08770
 Alpha virt. eigenvalues --    0.09240   0.09624   0.10973   0.11688   0.12062
 Alpha virt. eigenvalues --    0.12084   0.12645   0.14617   0.14913   0.16014

 Mulliken charges:
               1
     1  C   -0.022897
     2  C   -0.387363
     3  C   -0.311026
     4  C   -1.033768
     5  C    1.322958
     6  C   -0.729002
     7  N   -0.395184
     8  C    0.098160
     9  C   -0.283169
    10  H    0.452000
    11  H    0.240945
    12  H    0.242929
    13  H    0.199108
    14  H    0.202790
    15  H    0.196829
    16  H    0.206690
 Sum of Mulliken charges =  -0.00000

 Dipole moment (field-independent basis, Debye):
    X=              4.1772    Y=             -1.4287    Z=             -0.0006  Tot=              4.4147
 Quadrupole moment (field-independent basis, Debye-Ang):
   XX=            -44.1688   YY=            -45.8698   ZZ=            -60.4826
   XY=             -2.4375   XZ=             -0.0019   YZ=              0.0012

 Normal termination of Gaussian 16 at Wed Jun 23 14:16:09 2021.
