 Gaussian 16, Revision C.01,
 Gaussian 16:  AS64L-G16RevC.01  3-Jul-2019

 ----------------------------------------------------------
 # td= (nstates=6, root=1) APFD/6-31+G* Opt density=current
 ----------------------------------------------------------

 ---------------
 FuncsAPFD-V-1st
 ---------------
 Symbolic Z-matrix:
 Charge =  0 Multiplicity = 1

 SCF Done:  E(RAPFD) =  -363.529671794     A.U. after   14 cycles
 Total Energy, E(TD-HF/TD-DFT) =  -363.351296791
 SCF Done:  E(RAPFD) =  -363.523006743     A.U. after   13 cycles
 Total Energy, E(TD-HF/TD-DFT) =  -363.361512191
 SCF Done:  E(RAPFD) =  -363.519357877     A.U. after   13 cycles
 Total Energy, E(TD-HF/TD-DFT) =  -363.362725153
 SCF Done:  E(RAPFD) =  -363.518814476     A.U. after   11 cycles
 Total Energy, E(TD-HF/TD-DFT) =  -363.362840654
 SCF Done:  E(RAPFD) =  -363.518828134     A.U. after   10 cycles
 Total Energy, E(TD-HF/TD-DFT) =  -363.362865764
 SCF Done:  E(RAPFD) =  -363.518965034     A.U. after   10 cycles

 Excitation energies and oscillator strengths:

 Excited State   1:      Singlet-A      4.2476 eV  291.89 nm  f=0.1007  <S**2>=0.000
      29 -> 32         0.10755
      31 -> 32         0.68358
 This state for optimization and/or second-order correction.
 Total Energy, E(TD-HF/TD-DFT) =  -363.362868889
 Copying the excited state density for this state as the 1-particle RhoCI density.

 Excited State   2:      Singlet-A      4.7869 eV  259.01 nm  f=0.0022  <S**2>=0.000
      31 -> 33         0.70354

 Excited State   3:      Singlet-A      4.8462 eV  255.84 nm  f=0.0078  <S**2>=0.000
      30 -> 32         0.54317
      31 -> 34        -0.43567

 Excited State   4:      Singlet-A      5.3938 eV  229.87 nm  f=0.0000  <S**2>=0.000
      31 -> 35         0.69887

 Excited State   5:      Singlet-A      5.5222 eV  224.52 nm  f=0.0032  <S**2>=0.000
      31 -> 36        -0.69425

 Excited State   6:      Singlet-A      5.8294 eV  212.69 nm  f=0.4313  <S**2>=0.000
      29 -> 32         0.22566
      30 -> 32        -0.32485
      31 -> 34        -0.48143
      31 -> 38        -0.26684

 Optimization completed.
    -- Stationary point found.

                         Standard orientation:
 ---------------------------------------------------------------------
 Center     Atomic      Atomic             Coordinates (Angstroms)
 Number     Number       Type             X           Y           Z
 ---------------------------------------------------------------------
      1          6           0       -2.191672    0.649715   -0.000041
      2          6           0       -2.138089   -0.733461    0.000013
      3          6           0       -0.892361   -1.463618    0.000052
      4          6           0        0.252231   -0.649048    0.000037
      5          6           0        0.226654    0.748584   -0.000024
      6          6           0       -1.012301    1.453566   -0.000061
      7          7           0        1.607069   -1.034861    0.000040
      8          6           0        1.584975    1.181687   -0.000065
      9          6           0        2.424742    0.025375    0.000045
     10          1           0        1.915509   -1.998417    0.000145
     11          1           0        1.946233    2.202831   -0.000130
     12          1           0        3.501143   -0.065947    0.000077
     13          1           0       -3.066449   -1.300767    0.000023
     14          1           0       -0.856294   -2.547572    0.000029
     15          1           0       -3.162987    1.139341   -0.000071
     16          1           0       -1.051712    2.537766   -0.000079
 ---------------------------------------------------------------------

 The electronic state is 1-A.
 Alpha  occ. eigenvalues --  -14.42408 -10.25332 -10.24956 -10.22644 -10.21942
 Alpha  occ. eigenvalues --  -10.21605 -10.21459 -10.21200 -10.20369  -1.00700
 Alpha  occ. eigenvalues --   -0.85613  -0.79294  -0.75711  -0.72459  -0.64370
 Alpha  occ. eigenvalues --   -0.60938  -0.59072  -0.55408  -0.49554  -0.48405
 Alpha  occ. eigenvalues --   -0.44890  -0.44350  -0.43464  -0.41265  -0.40211
 Alpha  occ. eigenvalues --   -0.36009  -0.35335  -0.34506  -0.28210  -0.24176
 Alpha  occ. eigenvalues --   -0.20364
 Alpha virt. eigenvalues --   -0.02641   0.00543   0.02188   0.02467   0.03144
 Alpha virt. eigenvalues --    0.04540   0.04684   0.04704   0.06705   0.06949
 Alpha virt. eigenvalues --    0.07426   0.07469   0.09405   0.09632   0.11409

 Mulliken charges:
               1
     1  C   -0.026793
     2  C   -0.385680
     3  C   -0.480470
     4  C   -1.234797
     5  C    1.777695
     6  C   -0.806341
     7  N   -0.350704
     8  C   -0.001535
     9  C   -0.228700
    10  H    0.453791
    11  H    0.243269
    12  H    0.241391
    13  H    0.197603
    14  H    0.201018
    15  H    0.195598
    16  H    0.204656
 Sum of Mulliken charges =  -0.00000

 Dipole moment (field-independent basis, Debye):
    X=              4.8246    Y=             -1.1954    Z=              0.0000  Tot=              4.9704
 Quadrupole moment (field-independent basis, Debye-Ang):
   XX=            -43.6116   YY=            -46.3442   ZZ=            -60.4281
   XY=             -2.2255   XZ=              0.0004   YZ=             -0.0004

 Normal termination of Gaussian 16 at Tue Jun 15 12:16:53 2021.
