 Gaussian 16, Revision C.01,
 Gaussian 16:  ES64L-G16RevC.01  3-Jul-2019

 ------------------------------------------------------------
 # td= (nstates=6, root=1) PBEPBE/6-31+G* Opt density=current
 ------------------------------------------------------------

 -----------------
 FuncsPBEPBE-V-1st
 -----------------
 Symbolic Z-matrix:
 Charge =  0 Multiplicity = 1

 SCF Done:  E(RPBE-PBE) =  -363.370217365     A.U. after   15 cycles
 Total Energy, E(TD-HF/TD-DFT) =  -363.206938670
 SCF Done:  E(RPBE-PBE) =  -363.365840871     A.U. after   13 cycles
 Total Energy, E(TD-HF/TD-DFT) =  -363.221415250
 SCF Done:  E(RPBE-PBE) =  -363.361953235     A.U. after   13 cycles
 Total Energy, E(TD-HF/TD-DFT) =  -363.222828660
 SCF Done:  E(RPBE-PBE) =  -363.360413285     A.U. after   11 cycles
 Total Energy, E(TD-HF/TD-DFT) =  -363.223031156
 SCF Done:  E(RPBE-PBE) =  -363.360397083     A.U. after   11 cycles
 Total Energy, E(TD-HF/TD-DFT) =  -363.223057148
 SCF Done:  E(RPBE-PBE) =  -363.360511143     A.U. after   10 cycles

 Excitation energies and oscillator strengths:

 Excited State   1:      Singlet-A      3.7402 eV  331.49 nm  f=0.0467  <S**2>=0.000
      29 -> 32         0.15734
      31 -> 32         0.67090
 This state for optimization and/or second-order correction.
 Total Energy, E(TD-HF/TD-DFT) =  -363.223061774
 Copying the excited state density for this state as the 1-particle RhoCI density.

 Excited State   2:      Singlet-A      4.2571 eV  291.24 nm  f=0.0011  <S**2>=0.000
      31 -> 33         0.70694

 Excited State   3:      Singlet-A      4.4919 eV  276.02 nm  f=0.0036  <S**2>=0.000
      30 -> 32         0.51642
      31 -> 34        -0.46472

 Excited State   4:      Singlet-A      4.7946 eV  258.59 nm  f=0.0000  <S**2>=0.000
      31 -> 35         0.70692

 Excited State   5:      Singlet-A      5.0171 eV  247.12 nm  f=0.0020  <S**2>=0.000
      31 -> 36         0.70687

 Excited State   6:      Singlet-A      5.2110 eV  237.93 nm  f=0.0011  <S**2>=0.000
      30 -> 33         0.70688

 Optimization completed.
    -- Stationary point found.

                         Standard orientation:
 ---------------------------------------------------------------------
 Center     Atomic      Atomic             Coordinates (Angstroms)
 Number     Number       Type             X           Y           Z
 ---------------------------------------------------------------------
      1          6           0       -2.202052    0.658803   -0.000085
      2          6           0       -2.150782   -0.736040    0.000127
      3          6           0       -0.914982   -1.479148    0.000209
      4          6           0        0.243293   -0.644275    0.000041
      5          6           0        0.219483    0.748024   -0.000072
      6          6           0       -1.017196    1.471632   -0.000193
      7          7           0        1.621391   -1.042171   -0.000147
      8          6           0        1.610269    1.183179    0.000082
      9          6           0        2.448167    0.019690    0.000038
     10          1           0        1.928498   -2.015220   -0.000083
     11          1           0        1.976992    2.210699    0.000153
     12          1           0        3.532152   -0.076218    0.000146
     13          1           0       -3.091983   -1.297968    0.000134
     14          1           0       -0.878474   -2.569741    0.000148
     15          1           0       -3.181495    1.149684   -0.000130
     16          1           0       -1.052636    2.562768   -0.000217
 ---------------------------------------------------------------------

 The electronic state is 1-A.
 Alpha  occ. eigenvalues --  -14.05995  -9.94088  -9.94061  -9.91821  -9.91080
 Alpha  occ. eigenvalues --   -9.90687  -9.90679  -9.90385  -9.89615  -0.89813
 Alpha  occ. eigenvalues --   -0.76092  -0.70009  -0.66904  -0.64113  -0.56757
 Alpha  occ. eigenvalues --   -0.53503  -0.51877  -0.48805  -0.43202  -0.42320
 Alpha  occ. eigenvalues --   -0.38975  -0.38612  -0.37332  -0.35618  -0.34625
 Alpha  occ. eigenvalues --   -0.31109  -0.30057  -0.29711  -0.24014  -0.20918
 Alpha  occ. eigenvalues --   -0.17380
 Alpha virt. eigenvalues --   -0.05535  -0.01751  -0.01160   0.00253   0.01093
 Alpha virt. eigenvalues --    0.01197   0.02424   0.02686   0.04479   0.04792
 Alpha virt. eigenvalues --    0.05165   0.05428   0.07074   0.07430   0.09292

 Mulliken charges:
               1
     1  C   -0.009834
     2  C   -0.347223
     3  C   -0.581775
     4  C   -1.315270
     5  C    1.948301
     6  C   -0.759417
     7  N   -0.324517
     8  C   -0.019978
     9  C   -0.195971
    10  H    0.435231
    11  H    0.227916
    12  H    0.225419
    13  H    0.178104
    14  H    0.180125
    15  H    0.176442
    16  H    0.182449
 Sum of Mulliken charges =  -0.00000

 Dipole moment (field-independent basis, Debye):
    X=              5.4131    Y=             -1.0286    Z=             -0.0000  Tot=              5.5100
 Quadrupole moment (field-independent basis, Debye-Ang):
   XX=            -43.5049   YY=            -47.1816   ZZ=            -60.3547
   XY=             -2.0865   XZ=              0.0008   YZ=              0.0013

 Normal termination of Gaussian 16 at Mon Jun 28 13:27:38 2021.
