 Gaussian 16, Revision C.01,
 Gaussian 16:  AS64L-G16RevC.01  3-Jul-2019

 ---------------------------------------------------------
 # td= (nstates=6, root=3) BMK/6-31+G* Opt density=current
 ---------------------------------------------------------

 --------------
 FuncsBMK-V-3rd
 --------------
 Symbolic Z-matrix:
 Charge =  0 Multiplicity = 1

 SCF Done:  E(RBMK) =  -363.584024432     A.U. after   14 cycles
 Total Energy, E(TD-HF/TD-DFT) =  -363.373859806
 SCF Done:  E(RBMK) =  -363.579373459     A.U. after   13 cycles
 Total Energy, E(TD-HF/TD-DFT) =  -363.383256864
 SCF Done:  E(RBMK) =  -363.575350314     A.U. after   13 cycles
 Total Energy, E(TD-HF/TD-DFT) =  -363.384297276
 SCF Done:  E(RBMK) =  -363.575130182     A.U. after   11 cycles
 Total Energy, E(TD-HF/TD-DFT) =  -363.384360010
 SCF Done:  E(RBMK) =  -363.574996458     A.U. after   11 cycles
 Total Energy, E(TD-HF/TD-DFT) =  -363.384367727
 SCF Done:  E(RBMK) =  -363.575018861     A.U. after   10 cycles

 Excitation energies and oscillator strengths:

 Excited State   1:      Singlet-A      4.6785 eV  265.01 nm  f=0.1537  <S**2>=0.000
      30 -> 34         0.12887
      31 -> 32         0.68341

 Excited State   2:      Singlet-A      5.1131 eV  242.48 nm  f=0.0043  <S**2>=0.000
      30 -> 32         0.51611
      31 -> 34        -0.46470

 Excited State   3:      Singlet-A      5.1879 eV  238.99 nm  f=0.0019  <S**2>=0.000
      31 -> 33         0.69691
 This state for optimization and/or second-order correction.
 Total Energy, E(TD-HF/TD-DFT) =  -363.384368836
 Copying the excited state density for this state as the 1-particle RhoCI density.

 Excited State   4:      Singlet-A      5.9415 eV  208.68 nm  f=0.0001  <S**2>=0.000
      31 -> 35         0.69260

 Excited State   5:      Singlet-A      6.0497 eV  204.94 nm  f=0.0044  <S**2>=0.000
      31 -> 36         0.67632
      31 -> 37         0.14128

 Excited State   6:      Singlet-A      6.1598 eV  201.28 nm  f=0.5854  <S**2>=0.000
      30 -> 32         0.42108
      31 -> 34         0.49656
      31 -> 39         0.20524

 Optimization completed.
    -- Stationary point found.

                         Standard orientation:
 ---------------------------------------------------------------------
 Center     Atomic      Atomic             Coordinates (Angstroms)
 Number     Number       Type             X           Y           Z
 ---------------------------------------------------------------------
      1          6           0       -2.194356    0.641913   -0.000113
      2          6           0       -2.109266   -0.762454   -0.000008
      3          6           0       -0.865181   -1.446724    0.000166
      4          6           0        0.274064   -0.668347    0.000159
      5          6           0        0.218295    0.763394   -0.000053
      6          6           0       -1.036084    1.423294   -0.000218
      7          7           0        1.621864   -1.026625    0.000027
      8          6           0        1.556411    1.217969    0.000167
      9          6           0        2.381581    0.041443   -0.000097
     10          1           0        2.012758   -2.003705   -0.000067
     11          1           0        1.921077    2.240376    0.000218
     12          1           0        3.467440   -0.061104   -0.000171
     13          1           0       -3.024420   -1.350738   -0.000005
     14          1           0       -0.819678   -2.530555    0.000228
     15          1           0       -3.171252    1.119507   -0.000147
     16          1           0       -1.091752    2.509663   -0.000263
 ---------------------------------------------------------------------

 The electronic state is 1-A.
 Alpha  occ. eigenvalues --  -14.73438 -10.52536 -10.51778 -10.48821 -10.48126
 Alpha  occ. eigenvalues --  -10.48008 -10.47954 -10.47672 -10.47066  -1.07628
 Alpha  occ. eigenvalues --   -0.91217  -0.84481  -0.80895  -0.77155  -0.68659
 Alpha  occ. eigenvalues --   -0.65127  -0.63611  -0.59470  -0.53237  -0.52069
 Alpha  occ. eigenvalues --   -0.48547  -0.47980  -0.47840  -0.44650  -0.43056
 Alpha  occ. eigenvalues --   -0.39417  -0.38082  -0.37678  -0.31365  -0.26259
 Alpha  occ. eigenvalues --   -0.22233
 Alpha virt. eigenvalues --    0.00673   0.02641   0.04925   0.04951   0.05606
 Alpha virt. eigenvalues --    0.06652   0.07123   0.07901   0.09139   0.09450
 Alpha virt. eigenvalues --    0.09878   0.09998   0.12555   0.12923   0.13461

 Mulliken charges:
               1
     1  C   -0.186515
     2  C   -0.244409
     3  C   -0.020108
     4  C   -1.649279
     5  C    1.552335
     6  C    0.430162
     7  N    1.091394
     8  C   -6.329754
     9  C    3.739180
    10  H    0.198373
    11  H    0.248860
    12  H    0.260446
    13  H    0.224559
    14  H    0.239111
    15  H    0.216309
    16  H    0.229337
 Sum of Mulliken charges =  -0.00000

 Dipole moment (field-independent basis, Debye):
    X=             -7.1744    Y=              6.2953    Z=              0.0004  Tot=              9.5448
 Quadrupole moment (field-independent basis, Debye-Ang):
   XX=            -70.4420   YY=            -62.6286   ZZ=            -65.1963
   XY=             19.2493   XZ=              0.0040   YZ=              0.0006

 Normal termination of Gaussian 16 at Wed Jun 23 09:57:48 2021.
