 Gaussian 16, Revision C.01,
 Gaussian 16:  AS64L-G16RevC.01  3-Jul-2019

 -----------------------------------------------------------
 # td= (nstates=6, root=2) BVP86/6-31+G* Opt density=current
 -----------------------------------------------------------

 ----------------
 FuncsBVP86-V-2nd
 ----------------
 Symbolic Z-matrix:
 Charge =  0 Multiplicity = 1

 SCF Done:  E(RB-VP86) =  -363.845290966     A.U. after   15 cycles
 Total Energy, E(TD-HF/TD-DFT) =  -363.672383892
 SCF Done:  E(RB-VP86) =  -363.844602573     A.U. after   13 cycles
 Total Energy, E(TD-HF/TD-DFT) =  -363.682604570
 SCF Done:  E(RB-VP86) =  -363.844005648     A.U. after   12 cycles
 Total Energy, E(TD-HF/TD-DFT) =  -363.682769741
 SCF Done:  E(RB-VP86) =  -363.843741227     A.U. after   12 cycles
 Total Energy, E(TD-HF/TD-DFT) =  -363.682787422
 SCF Done:  E(RB-VP86) =  -363.843830917     A.U. after   10 cycles

 Excitation energies and oscillator strengths:

 Excited State   1:      Singlet-A      4.2413 eV  292.33 nm  f=0.0584  <S**2>=0.000
      29 -> 32         0.12557
      30 -> 33         0.12691
      31 -> 32         0.66033

 Excited State   2:      Singlet-A      4.3821 eV  282.93 nm  f=0.0215  <S**2>=0.000
      30 -> 32         0.55603
      31 -> 33        -0.42957
 This state for optimization and/or second-order correction.
 Total Energy, E(TD-HF/TD-DFT) =  -363.682792476
 Copying the excited state density for this state as the 1-particle RhoCI density.

 Excited State   3:      Singlet-A      4.7890 eV  258.89 nm  f=0.0015  <S**2>=0.000
      31 -> 34         0.70674

 Excited State   4:      Singlet-A      5.1601 eV  240.28 nm  f=0.0017  <S**2>=0.000
      30 -> 34         0.70673

 Excited State   5:      Singlet-A      5.3089 eV  233.54 nm  f=0.0000  <S**2>=0.000
      31 -> 35        -0.70668

 Excited State   6:      Singlet-A      5.4377 eV  228.01 nm  f=0.2199  <S**2>=0.000
      29 -> 32         0.33133
      30 -> 32        -0.26256
      30 -> 33        -0.24729
      31 -> 32        -0.10191
      31 -> 33        -0.37283
      31 -> 36         0.29825

 Optimization completed.
    -- Stationary point found.

                         Standard orientation:
 ---------------------------------------------------------------------
 Center     Atomic      Atomic             Coordinates (Angstroms)
 Number     Number       Type             X           Y           Z
 ---------------------------------------------------------------------
      1          6           0       -2.183718    0.707177   -0.000036
      2          6           0       -2.166643   -0.737936    0.000096
      3          6           0       -0.947591   -1.459130    0.000088
      4          6           0        0.248011   -0.687410   -0.000051
      5          6           0        0.262338    0.780795   -0.000015
      6          6           0       -0.972614    1.480137   -0.000081
      7          7           0        1.573492   -1.096576   -0.000208
      8          6           0        1.630168    1.178332    0.000091
      9          6           0        2.426906    0.018615    0.000036
     10          1           0        1.885494   -2.064565    0.000438
     11          1           0        2.011501    2.199628    0.000148
     12          1           0        3.507979   -0.104881   -0.000002
     13          1           0       -3.116606   -1.280130    0.000168
     14          1           0       -0.929547   -2.552934    0.000098
     15          1           0       -3.148844    1.222454   -0.000076
     16          1           0       -1.005568    2.572996   -0.000092
 ---------------------------------------------------------------------

 The electronic state is 1-A.
 Alpha  occ. eigenvalues --  -14.08022  -9.95845  -9.95827  -9.92875  -9.92407
 Alpha  occ. eigenvalues --   -9.92369  -9.92360  -9.92066  -9.91516  -0.89787
 Alpha  occ. eigenvalues --   -0.75509  -0.71198  -0.66263  -0.64858  -0.56651
 Alpha  occ. eigenvalues --   -0.54285  -0.52348  -0.48640  -0.44019  -0.42189
 Alpha  occ. eigenvalues --   -0.39104  -0.38677  -0.37462  -0.36332  -0.35289
 Alpha  occ. eigenvalues --   -0.31614  -0.29942  -0.29301  -0.25187  -0.19940
 Alpha  occ. eigenvalues --   -0.18542
 Alpha virt. eigenvalues --   -0.05270  -0.01994  -0.00921   0.01015   0.01295
 Alpha virt. eigenvalues --    0.01735   0.03021   0.03332   0.05218   0.05694
 Alpha virt. eigenvalues --    0.05752   0.06037   0.07711   0.08449   0.09903

 Mulliken charges:
               1
     1  C   -0.008307
     2  C   -0.439315
     3  C   -0.258069
     4  C   -1.026016
     5  C    1.423516
     6  C   -0.716029
     7  N   -0.393940
     8  C    0.166098
     9  C   -0.301596
    10  H    0.411795
    11  H    0.198126
    12  H    0.204986
    13  H    0.184431
    14  H    0.182301
    15  H    0.184578
    16  H    0.187441
 Sum of Mulliken charges =  -0.00000

 Dipole moment (field-independent basis, Debye):
    X=              2.0767    Y=             -1.3571    Z=              0.0007  Tot=              2.4808
 Quadrupole moment (field-independent basis, Debye-Ang):
   XX=            -46.0777   YY=            -45.5106   ZZ=            -59.9248
   XY=             -3.0539   XZ=              0.0013   YZ=             -0.0016

 Normal termination of Gaussian 16 at Mon Jun 14 12:50:25 2021.
