 Gaussian 16, Revision C.01,
 Gaussian 16:  AS64L-G16RevC.01  3-Jul-2019

 ---------------------------------------------------------------
 # td= (nstates=6, root=2) CAM-B3LYP/6-31+G* Opt density=current
 ---------------------------------------------------------------

 -------------------
 FuncsCAM-B3LYPII2nd
 -------------------
 Symbolic Z-matrix:
 Charge =  0 Multiplicity = 1

 SCF Done:  E(RCAM-B3LYP) =  -363.624676885     A.U. after   15 cycles
 Total Energy, E(TD-HF/TD-DFT) =  -363.437053785
 SCF Done:  E(RCAM-B3LYP) =  -363.618573052     A.U. after   14 cycles
 Total Energy, E(TD-HF/TD-DFT) =  -363.445780616
 SCF Done:  E(RCAM-B3LYP) =  -363.611515606     A.U. after   13 cycles
 Total Energy, E(TD-HF/TD-DFT) =  -363.448118854
 SCF Done:  E(RCAM-B3LYP) =  -363.612542773     A.U. after   12 cycles
 Total Energy, E(TD-HF/TD-DFT) =  -363.448489986
 SCF Done:  E(RCAM-B3LYP) =  -363.613177551     A.U. after   12 cycles
 Total Energy, E(TD-HF/TD-DFT) =  -363.448589113
 SCF Done:  E(RCAM-B3LYP) =  -363.613422162     A.U. after   11 cycles
 Total Energy, E(TD-HF/TD-DFT) =  -363.448595982
 SCF Done:  E(RCAM-B3LYP) =  -363.613462853     A.U. after   10 cycles

 Excitation energies and oscillator strengths:

 Excited State   1:      Singlet-A      4.9013 eV  252.96 nm  f=0.0035  <S**2>=0.000
      31 -> 33         0.68988

 Excited State   2:      Singlet-A      4.4862 eV  276.37 nm  f=0.1631  <S**2>=0.000
      30 -> 37        -0.11454
      31 -> 32        -0.68853
 This state for optimization and/or second-order correction.
 Total Energy, E(TD-HF/TD-DFT) =  -363.448597421
 Copying the excited state density for this state as the 1-particle RhoCI density.

 Excited State   3:      Singlet-A      4.9458 eV  250.69 nm  f=0.0108  <S**2>=0.000
      30 -> 32        -0.55043
      31 -> 37         0.40842

 Excited State   4:      Singlet-A      5.5688 eV  222.64 nm  f=0.0012  <S**2>=0.000
      31 -> 34         0.63879
      31 -> 35        -0.22753

 Excited State   5:      Singlet-A      5.6259 eV  220.38 nm  f=0.0035  <S**2>=0.000
      31 -> 34         0.22158
      31 -> 35         0.62622
      31 -> 36         0.15422

 Excited State   6:      Singlet-A      6.0018 eV  206.58 nm  f=0.4978  <S**2>=0.000
      30 -> 32         0.35450
      31 -> 37         0.53659
      31 -> 39         0.22972

 Optimization completed.
    -- Stationary point found.

                         Standard orientation:
 ---------------------------------------------------------------------
 Center     Atomic      Atomic             Coordinates (Angstroms)
 Number     Number       Type             X           Y           Z
 ---------------------------------------------------------------------
      1          6           0       -2.192842    0.643602    0.000001
      2          6           0       -2.139244   -0.733924    0.000035
      3          6           0       -0.878680   -1.454717    0.000029
      4          6           0        0.257165   -0.656458    0.000021
      5          6           0        0.234571    0.753078   -0.000043
      6          6           0       -1.017601    1.443038   -0.000049
      7          7           0        1.606970   -1.037567   -0.000000
      8          6           0        1.573846    1.186283   -0.000145
      9          6           0        2.418051    0.034270    0.000138
     10          1           0        1.923072   -1.998202    0.000085
     11          1           0        1.932515    2.206886   -0.000224
     12          1           0        3.494015   -0.051111    0.000260
     13          1           0       -3.060674   -1.308001    0.000054
     14          1           0       -0.843607   -2.537835    0.000001
     15          1           0       -3.161556    1.134242   -0.000017
     16          1           0       -1.064149    2.525960   -0.000078
 ---------------------------------------------------------------------

 The electronic state is 1-A.
 Alpha  occ. eigenvalues --  -14.46148 -10.30483 -10.29781 -10.27398 -10.26746
 Alpha  occ. eigenvalues --  -10.26481 -10.26301 -10.25986 -10.25162  -1.07143
 Alpha  occ. eigenvalues --   -0.92238  -0.86095  -0.82343  -0.78859  -0.70652
 Alpha  occ. eigenvalues --   -0.67330  -0.65353  -0.61452  -0.55575  -0.54411
 Alpha  occ. eigenvalues --   -0.50854  -0.50159  -0.49720  -0.47162  -0.46067
 Alpha  occ. eigenvalues --   -0.41406  -0.41072  -0.40244  -0.33616  -0.28751
 Alpha  occ. eigenvalues --   -0.24617
 Alpha virt. eigenvalues --    0.01258   0.02324   0.04254   0.04804   0.06153
 Alpha virt. eigenvalues --    0.06311   0.06357   0.08024   0.08516   0.08998
 Alpha virt. eigenvalues --    0.09011   0.09353   0.11338   0.11780   0.12995

 Mulliken charges:
               1
     1  C    0.017026
     2  C   -0.366187
     3  C   -0.399956
     4  C   -0.830760
     5  C    1.324753
     6  C   -0.769188
     7  N   -0.429748
     8  C    0.134844
     9  C   -0.291400
    10  H    0.438917
    11  H    0.219343
    12  H    0.224587
    13  H    0.179868
    14  H    0.183527
    15  H    0.177178
    16  H    0.187195
 Sum of Mulliken charges =  -0.00000

 Dipole moment (field-independent basis, Debye):
    X=              4.1010    Y=             -1.4032    Z=             -0.0004  Tot=              4.3344
 Quadrupole moment (field-independent basis, Debye-Ang):
   XX=            -45.3621   YY=            -47.0211   ZZ=            -61.1551
   XY=             -2.3788   XZ=             -0.0001   YZ=             -0.0002

 Normal termination of Gaussian 16 at Fri Jun 11 08:14:09 2021.
