 Gaussian 16, Revision C.01,
 Gaussian 16:  AS64L-G16RevC.01  3-Jul-2019

 ----------------------------------------------------------
 # td= (nstates=6, root=1) MN15/6-31+G* Opt density=current
 ----------------------------------------------------------

 ---------------
 FuncsMN15-V-1st
 ---------------
 Symbolic Z-matrix:
 Charge =  0 Multiplicity = 1

 SCF Done:  E(RMN15) =  -363.386843859     A.U. after   15 cycles
 Total Energy, E(TD-HF/TD-DFT) =  -363.202583965
 SCF Done:  E(RMN15) =  -363.381955046     A.U. after   13 cycles
 Total Energy, E(TD-HF/TD-DFT) =  -363.211058389
 SCF Done:  E(RMN15) =  -363.376522662     A.U. after   13 cycles
 Total Energy, E(TD-HF/TD-DFT) =  -363.213268862
 SCF Done:  E(RMN15) =  -363.374681528     A.U. after   13 cycles
 Total Energy, E(TD-HF/TD-DFT) =  -363.213951102
 SCF Done:  E(RMN15) =  -363.374964738     A.U. after   13 cycles
 Total Energy, E(TD-HF/TD-DFT) =  -363.214228192
 SCF Done:  E(RMN15) =  -363.375657788     A.U. after   12 cycles
 Total Energy, E(TD-HF/TD-DFT) =  -363.214305557
 SCF Done:  E(RMN15) =  -363.375861071     A.U. after   11 cycles
 Total Energy, E(TD-HF/TD-DFT) =  -363.214314435
 SCF Done:  E(RMN15) =  -363.375880117     A.U. after   10 cycles

 Excitation energies and oscillator strengths:

 Excited State   1:      Singlet-A      4.3964 eV  282.01 nm  f=0.1450  <S**2>=0.000
      30 -> 34         0.10769
      31 -> 32         0.68860
 This state for optimization and/or second-order correction.
 Total Energy, E(TD-HF/TD-DFT) =  -363.214315343
 Copying the excited state density for this state as the 1-particle RhoCI density.

 Excited State   2:      Singlet-A      4.8847 eV  253.82 nm  f=0.0100  <S**2>=0.000
      30 -> 32         0.54893
      31 -> 34        -0.42550

 Excited State   3:      Singlet-A      5.5315 eV  224.14 nm  f=0.0055  <S**2>=0.000
      31 -> 33         0.68812

 Excited State   4:      Singlet-A      5.9394 eV  208.75 nm  f=0.5805  <S**2>=0.000
      30 -> 32         0.38033
      31 -> 34         0.53768
      31 -> 37        -0.18754

 Excited State   5:      Singlet-A      6.1290 eV  202.29 nm  f=0.0000  <S**2>=0.000
      31 -> 35         0.67806

 Excited State   6:      Singlet-A      6.2379 eV  198.76 nm  f=0.0074  <S**2>=0.000
      31 -> 36        -0.65780
      31 -> 38        -0.10544
      31 -> 39        -0.12494

 Optimization completed.
    -- Stationary point found.

                         Standard orientation:
 ---------------------------------------------------------------------
 Center     Atomic      Atomic             Coordinates (Angstroms)
 Number     Number       Type             X           Y           Z
 ---------------------------------------------------------------------
      1          6           0       -2.198106    0.645935   -0.000080
      2          6           0       -2.143454   -0.736485   -0.000010
      3          6           0       -0.883872   -1.461932    0.000064
      4          6           0        0.256286   -0.655222    0.000047
      5          6           0        0.231648    0.753698   -0.000015
      6          6           0       -1.020105    1.450432   -0.000076
      7          7           0        1.611782   -1.038596    0.000078
      8          6           0        1.579584    1.187800    0.000020
      9          6           0        2.427666    0.032891   -0.000030
     10          1           0        1.925085   -2.004074    0.000176
     11          1           0        1.937295    2.210495   -0.000025
     12          1           0        3.504999   -0.053307   -0.000098
     13          1           0       -3.068045   -1.309386   -0.000003
     14          1           0       -0.845964   -2.546800    0.000088
     15          1           0       -3.169631    1.135181   -0.000119
     16          1           0       -1.064091    2.535370   -0.000087
 ---------------------------------------------------------------------

 The electronic state is 1-A.
 Alpha  occ. eigenvalues --  -14.17657 -10.11398 -10.10783 -10.08370 -10.07728
 Alpha  occ. eigenvalues --  -10.07432 -10.07240 -10.06956 -10.06130  -1.02750
 Alpha  occ. eigenvalues --   -0.88084  -0.81883  -0.78137  -0.74783  -0.66974
 Alpha  occ. eigenvalues --   -0.63673  -0.61739  -0.58235  -0.52268  -0.51295
 Alpha  occ. eigenvalues --   -0.47796  -0.47152  -0.47089  -0.44171  -0.43092
 Alpha  occ. eigenvalues --   -0.38591  -0.38261  -0.37699  -0.31113  -0.26575
 Alpha  occ. eigenvalues --   -0.22569
 Alpha virt. eigenvalues --   -0.00389   0.04458   0.04631   0.06256   0.07003
 Alpha virt. eigenvalues --    0.07582   0.08361   0.08599   0.09959   0.10826
 Alpha virt. eigenvalues --    0.11225   0.11270   0.13272   0.13563   0.14803

 Mulliken charges:
               1
     1  C    0.016355
     2  C   -0.311015
     3  C   -0.359015
     4  C   -0.648897
     5  C    1.042844
     6  C   -0.758258
     7  N   -0.470535
     8  C    0.353008
     9  C   -0.355507
    10  H    0.422279
    11  H    0.204754
    12  H    0.213484
    13  H    0.161021
    14  H    0.163971
    15  H    0.158669
    16  H    0.166843
 Sum of Mulliken charges =  -0.00000

 Dipole moment (field-independent basis, Debye):
    X=              4.4019    Y=             -1.3712    Z=              0.0002  Tot=              4.6106
 Quadrupole moment (field-independent basis, Debye-Ang):
   XX=            -44.5428   YY=            -46.6667   ZZ=            -60.3214
   XY=             -2.4155   XZ=              0.0002   YZ=             -0.0005

 Normal termination of Gaussian 16 at Wed Jun 23 10:12:18 2021.
