 Gaussian 16, Revision C.01,
 Gaussian 16:  AS64L-G16RevC.01  3-Jul-2019

 ---------------------------------------------------------
 # td= (nstates=6, root=1) CIS/6-31+G* Opt density=current
 ---------------------------------------------------------

 --------------
 FuncsCIS-V-1st
 --------------
 Symbolic Z-matrix:
 Charge =  0 Multiplicity = 1

 SCF Done:  E(RHF) =  -361.478205206     A.U. after   17 cycles
 SCF Done:  E(RHF) =  -361.471091712     A.U. after   15 cycles
 SCF Done:  E(RHF) =  -361.466977582     A.U. after   15 cycles
 SCF Done:  E(RHF) =  -361.466910235     A.U. after   14 cycles
 SCF Done:  E(RHF) =  -361.466999879     A.U. after   13 cycles

 Excitation energies and oscillator strengths:

 Excited State   1:      Singlet-A      5.0703 eV  244.53 nm  f=0.3478  <S**2>=0.000
      30 -> 41        -0.10760
      30 -> 43         0.13519
      31 -> 35         0.62902
      31 -> 41         0.11744
 This state for optimization and/or second-order correction.
 Total Energy, E(CIS/TDA) =  -361.280671313
 Copying the excited state density for this state as the 1-particle RhoCI density.

 Excited State   2:      Singlet-A      5.2180 eV  237.61 nm  f=0.0107  <S**2>=0.000
      31 -> 32         0.65361
      31 -> 34        -0.10925
      31 -> 39        -0.10272
      31 -> 42         0.10727

 Excited State   3:      Singlet-A      5.5827 eV  222.09 nm  f=0.0108  <S**2>=0.000
      30 -> 35         0.48703
      30 -> 40        -0.10197
      30 -> 41         0.14927
      31 -> 41         0.23647
      31 -> 43        -0.27928
      31 -> 44         0.14202
      31 -> 47        -0.10177
      31 -> 54         0.12462

 Excited State   4:      Singlet-A      5.7754 eV  214.68 nm  f=0.0017  <S**2>=0.000
      31 -> 33         0.61595
      31 -> 34        -0.24211

 Excited State   5:      Singlet-A      5.8743 eV  211.06 nm  f=0.0012  <S**2>=0.000
      31 -> 32         0.13699
      31 -> 33         0.24367
      31 -> 34         0.58224
      31 -> 36         0.10295
      31 -> 42        -0.15236

 Excited State   6:      Singlet-A      6.3575 eV  195.02 nm  f=0.0215  <S**2>=0.000
      30 -> 32        -0.32009
      30 -> 33         0.10660
      30 -> 34         0.10067
      31 -> 37         0.54604
      31 -> 39        -0.10937

 Optimization completed.
    -- Stationary point found.

                         Standard orientation:
 ---------------------------------------------------------------------
 Center     Atomic      Atomic             Coordinates (Angstroms)
 Number     Number       Type             X           Y           Z
 ---------------------------------------------------------------------
      1          6           0       -2.186091    0.645518    0.000076
      2          6           0       -2.126379   -0.740361    0.000007
      3          6           0       -0.863898   -1.446867    0.000455
      4          6           0        0.269291   -0.672245   -0.000210
      5          6           0        0.241868    0.753846   -0.000414
      6          6           0       -1.029545    1.432011    0.000288
      7          7           0        1.605037   -1.039395   -0.000456
      8          6           0        1.560411    1.191042   -0.000167
      9          6           0        2.392662    0.050100    0.000194
     10          1           0        1.935506   -1.977951    0.000753
     11          1           0        1.916698    2.201025    0.000065
     12          1           0        3.459902   -0.021010    0.000335
     13          1           0       -3.035049   -1.314086   -0.000106
     14          1           0       -0.835448   -2.520706    0.000357
     15          1           0       -3.147997    1.125273    0.000090
     16          1           0       -1.078789    2.504960    0.000329
 ---------------------------------------------------------------------

 The electronic state is 1-A.
 Alpha  occ. eigenvalues --  -15.61793 -11.28151 -11.26940 -11.24210 -11.23764
 Alpha  occ. eigenvalues --  -11.23521 -11.23364 -11.22753 -11.21810  -1.31124
 Alpha  occ. eigenvalues --   -1.12905  -1.05852  -1.00958  -0.96594  -0.85213
 Alpha  occ. eigenvalues --   -0.81513  -0.79123  -0.73468  -0.67067  -0.65193
 Alpha  occ. eigenvalues --   -0.61033  -0.60182  -0.58777  -0.56990  -0.55450
 Alpha  occ. eigenvalues --   -0.50559  -0.49217  -0.46245  -0.38213  -0.31192
 Alpha  occ. eigenvalues --   -0.26527
 Alpha virt. eigenvalues --    0.05885   0.07640   0.08185   0.08818   0.09228
 Alpha virt. eigenvalues --    0.09793   0.12072   0.12109   0.12933   0.13378
 Alpha virt. eigenvalues --    0.13443   0.14169   0.15850   0.16060   0.16300

 Mulliken charges:
               1
     1  C   -0.059829
     2  C   -0.442996
     3  C   -0.204501
     4  C   -0.755234
     5  C    1.135536
     6  C   -0.834951
     7  N   -0.524165
     8  C   -0.015566
     9  C   -0.276103
    10  H    0.488505
    11  H    0.262693
    12  H    0.266364
    13  H    0.236509
    14  H    0.242603
    15  H    0.230963
    16  H    0.250173
 Sum of Mulliken charges =   0.00000

 Dipole moment (field-independent basis, Debye):
    X=              2.6382    Y=             -1.5257    Z=             -0.0195  Tot=              3.0476
 Quadrupole moment (field-independent basis, Debye-Ang):
   XX=            -46.9154   YY=            -47.0954   ZZ=            -63.6863
   XY=             -2.4463   XZ=             -0.0372   YZ=              0.0076

 Normal termination of Gaussian 16 at Wed Jun 23 07:33:08 2021.
