 Gaussian 16, Revision C.01,
 Gaussian 16:  ES64L-G16RevC.01  3-Jul-2019

 ------------------------------------------------------------
 # td= (nstates=6, root=3) PBEPBE/6-31+G* Opt density=current
 ------------------------------------------------------------

 -----------------
 FuncsPBEPBE-V-3rd
 -----------------
 Symbolic Z-matrix:
 Charge =  0 Multiplicity = 1

 SCF Done:  E(RPBE-PBE) =  -363.370217365     A.U. after   15 cycles
 Total Energy, E(TD-HF/TD-DFT) =  -363.197481576
 SCF Done:  E(RPBE-PBE) =  -363.369302505     A.U. after   13 cycles
 Total Energy, E(TD-HF/TD-DFT) =  -363.207183731
 SCF Done:  E(RPBE-PBE) =  -363.368767438     A.U. after   12 cycles
 Total Energy, E(TD-HF/TD-DFT) =  -363.207343804
 SCF Done:  E(RPBE-PBE) =  -363.368533973     A.U. after   11 cycles
 Total Energy, E(TD-HF/TD-DFT) =  -363.207360521
 SCF Done:  E(RPBE-PBE) =  -363.368608847     A.U. after   10 cycles

 Excitation energies and oscillator strengths:

 Excited State   1:      Singlet-A      4.2383 eV  292.53 nm  f=0.0577  <S**2>=0.000
      29 -> 32         0.12755
      30 -> 34         0.12153
      31 -> 32         0.66097

 Excited State   2:      Singlet-A      4.5125 eV  274.76 nm  f=0.0014  <S**2>=0.000
      31 -> 33         0.69644
      31 -> 34         0.12084

 Excited State   3:      Singlet-A      4.3877 eV  282.57 nm  f=0.0220  <S**2>=0.000
      30 -> 32         0.55808
      31 -> 34        -0.42079
 This state for optimization and/or second-order correction.
 Total Energy, E(TD-HF/TD-DFT) =  -363.207364908
 Copying the excited state density for this state as the 1-particle RhoCI density.

 Excited State   4:      Singlet-A      4.8853 eV  253.79 nm  f=0.0015  <S**2>=0.000
      30 -> 33         0.69647
      30 -> 34         0.12046

 Excited State   5:      Singlet-A      5.0740 eV  244.35 nm  f=0.0000  <S**2>=0.000
      31 -> 35         0.70682

 Excited State   6:      Singlet-A      5.2414 eV  236.55 nm  f=0.0012  <S**2>=0.000
      31 -> 36         0.70683

 Optimization completed.
    -- Stationary point found.

                         Standard orientation:
 ---------------------------------------------------------------------
 Center     Atomic      Atomic             Coordinates (Angstroms)
 Number     Number       Type             X           Y           Z
 ---------------------------------------------------------------------
      1          6           0       -2.181410    0.706841   -0.000020
      2          6           0       -2.164773   -0.737313    0.000133
      3          6           0       -0.946592   -1.458276    0.000066
      4          6           0        0.248067   -0.686654   -0.000095
      5          6           0        0.262453    0.780199   -0.000025
      6          6           0       -0.971763    1.479398   -0.000062
      7          7           0        1.571005   -1.095200   -0.000217
      8          6           0        1.629416    1.177209    0.000078
      9          6           0        2.424362    0.017699    0.000043
     10          1           0        1.882139   -2.063192    0.000501
     11          1           0        2.011028    2.198501    0.000146
     12          1           0        3.505543   -0.106532    0.000044
     13          1           0       -3.114965   -1.279132    0.000221
     14          1           0       -0.928216   -2.552141    0.000049
     15          1           0       -3.146695    1.221954   -0.000071
     16          1           0       -1.004437    2.572320   -0.000086
 ---------------------------------------------------------------------

 The electronic state is 1-A.
 Alpha  occ. eigenvalues --  -14.06330  -9.94227  -9.94225  -9.91287  -9.90835
 Alpha  occ. eigenvalues --   -9.90778  -9.90767  -9.90467  -9.89917  -0.89649
 Alpha  occ. eigenvalues --   -0.75261  -0.70945  -0.65988  -0.64574  -0.56384
 Alpha  occ. eigenvalues --   -0.53975  -0.52062  -0.48351  -0.43705  -0.41854
 Alpha  occ. eigenvalues --   -0.38807  -0.38340  -0.37269  -0.36002  -0.34947
 Alpha  occ. eigenvalues --   -0.31239  -0.29588  -0.29070  -0.24955  -0.19699
 Alpha  occ. eigenvalues --   -0.18292
 Alpha virt. eigenvalues --   -0.05024  -0.01726  -0.01722   0.00370   0.01000
 Alpha virt. eigenvalues --    0.01434   0.02384   0.02681   0.04560   0.04791
 Alpha virt. eigenvalues --    0.05168   0.05419   0.06990   0.07541   0.09413

 Mulliken charges:
               1
     1  C    0.011559
     2  C   -0.466807
     3  C   -0.296395
     4  C   -1.135098
     5  C    1.588598
     6  C   -0.746435
     7  N   -0.386621
     8  C    0.121307
     9  C   -0.293754
    10  H    0.419416
    11  H    0.204776
    12  H    0.209958
    13  H    0.191753
    14  H    0.190686
    15  H    0.191924
    16  H    0.195132
 Sum of Mulliken charges =  -0.00000

 Dipole moment (field-independent basis, Debye):
    X=              2.0671    Y=             -1.3520    Z=              0.0004  Tot=              2.4700
 Quadrupole moment (field-independent basis, Debye-Ang):
   XX=            -46.3182   YY=            -45.7172   ZZ=            -60.1704
   XY=             -3.0766   XZ=              0.0014   YZ=             -0.0010

 Normal termination of Gaussian 16 at Mon Jun 28 12:58:07 2021.
