 Gaussian 16, Revision C.01,
 Gaussian 16:  AS64L-G16RevC.01  3-Jul-2019

 -----------------------------------------------------------
 # td= (nstates=6, root=1) BVP86/6-31+G* Opt density=current
 -----------------------------------------------------------

 ----------------
 FuncsBVP86-V-1st
 ----------------
 Symbolic Z-matrix:
 Charge =  0 Multiplicity = 1

 SCF Done:  E(RB-VP86) =  -363.845290966     A.U. after   15 cycles
 Total Energy, E(TD-HF/TD-DFT) =  -363.681513354
 SCF Done:  E(RB-VP86) =  -363.841168377     A.U. after   13 cycles
 Total Energy, E(TD-HF/TD-DFT) =  -363.696447206
 SCF Done:  E(RB-VP86) =  -363.837235470     A.U. after   13 cycles
 Total Energy, E(TD-HF/TD-DFT) =  -363.697902350
 SCF Done:  E(RB-VP86) =  -363.835561404     A.U. after   13 cycles
 Total Energy, E(TD-HF/TD-DFT) =  -363.698123829
 SCF Done:  E(RB-VP86) =  -363.835550064     A.U. after   11 cycles
 Total Energy, E(TD-HF/TD-DFT) =  -363.698152926
 SCF Done:  E(RB-VP86) =  -363.835650360     A.U. after   10 cycles

 Excitation energies and oscillator strengths:

 Excited State   1:      Singlet-A      3.7413 eV  331.39 nm  f=0.0472  <S**2>=0.000
      29 -> 32         0.15725
      31 -> 32         0.67074
      31 -> 33        -0.10106
 This state for optimization and/or second-order correction.
 Total Energy, E(TD-HF/TD-DFT) =  -363.698158372
 Copying the excited state density for this state as the 1-particle RhoCI density.

 Excited State   2:      Singlet-A      4.4870 eV  276.32 nm  f=0.0038  <S**2>=0.000
      30 -> 32         0.51554
      31 -> 33        -0.46578

 Excited State   3:      Singlet-A      4.5300 eV  273.70 nm  f=0.0012  <S**2>=0.000
      31 -> 34         0.70680

 Excited State   4:      Singlet-A      5.0281 eV  246.58 nm  f=0.0000  <S**2>=0.000
      31 -> 35        -0.70682

 Excited State   5:      Singlet-A      5.2700 eV  235.26 nm  f=0.0022  <S**2>=0.000
      31 -> 37        -0.70644

 Excited State   6:      Singlet-A      5.3472 eV  231.87 nm  f=0.1704  <S**2>=0.000
      29 -> 32         0.39880
      29 -> 36        -0.11861
      30 -> 32        -0.20405
      30 -> 33        -0.13296
      30 -> 36        -0.11165
      31 -> 32        -0.14428
      31 -> 33        -0.30526
      31 -> 36         0.36369

 Optimization completed.
    -- Stationary point found.

                         Standard orientation:
 ---------------------------------------------------------------------
 Center     Atomic      Atomic             Coordinates (Angstroms)
 Number     Number       Type             X           Y           Z
 ---------------------------------------------------------------------
      1          6           0       -2.204280    0.659301   -0.000117
      2          6           0       -2.153360   -0.735985    0.000088
      3          6           0       -0.916501   -1.480276    0.000174
      4          6           0        0.243006   -0.644994    0.000066
      5          6           0        0.219649    0.748069   -0.000049
      6          6           0       -1.017856    1.472460   -0.000185
      7          7           0        1.623984   -1.043426   -0.000101
      8          6           0        1.611607    1.184266    0.000122
      9          6           0        2.450856    0.020207    0.000002
     10          1           0        1.932187   -2.016350   -0.000061
     11          1           0        1.978266    2.211560    0.000173
     12          1           0        3.534694   -0.075118    0.000025
     13          1           0       -3.094466   -1.298116    0.000113
     14          1           0       -0.880680   -2.570741    0.000199
     15          1           0       -3.183366    1.150949   -0.000167
     16          1           0       -1.053248    2.563505   -0.000190
 ---------------------------------------------------------------------

 The electronic state is 1-A.
 Alpha  occ. eigenvalues --  -14.07686  -9.95711  -9.95665  -9.93417  -9.92674
 Alpha  occ. eigenvalues --   -9.92285  -9.92253  -9.91987  -9.91201  -0.89957
 Alpha  occ. eigenvalues --   -0.76337  -0.70256  -0.67179  -0.64394  -0.57034
 Alpha  occ. eigenvalues --   -0.53801  -0.52166  -0.49097  -0.43522  -0.42655
 Alpha  occ. eigenvalues --   -0.39274  -0.38931  -0.37525  -0.35967  -0.34953
 Alpha  occ. eigenvalues --   -0.31483  -0.30415  -0.29941  -0.24238  -0.21162
 Alpha  occ. eigenvalues --   -0.17630
 Alpha virt. eigenvalues --   -0.05784  -0.01420  -0.00952   0.00888   0.01035
 Alpha virt. eigenvalues --    0.01828   0.03068   0.03344   0.05108   0.05700
 Alpha virt. eigenvalues --    0.05754   0.06049   0.07814   0.08345   0.09790

 Mulliken charges:
               1
     1  C   -0.014231
     2  C   -0.313454
     3  C   -0.545890
     4  C   -1.188290
     5  C    1.773155
     6  C   -0.764914
     7  N   -0.331745
     8  C    0.033834
     9  C   -0.203531
    10  H    0.428256
    11  H    0.222148
    12  H    0.221254
    13  H    0.169883
    14  H    0.171278
    15  H    0.168091
    16  H    0.174155
 Sum of Mulliken charges =  -0.00000

 Dipole moment (field-independent basis, Debye):
    X=              5.4204    Y=             -1.0280    Z=              0.0002  Tot=              5.5171
 Quadrupole moment (field-independent basis, Debye-Ang):
   XX=            -43.3102   YY=            -46.8966   ZZ=            -60.0735
   XY=             -2.0891   XZ=              0.0003   YZ=              0.0008

 Normal termination of Gaussian 16 at Mon Jun 14 12:40:41 2021.
