 Gaussian 16, Revision C.01,
 Gaussian 16:  ES64L-G16RevC.01  3-Jul-2019

 ------------------------------------------------------------
 # td= (nstates=6, root=2) N12SX/6-31G(d) Opt density=current
 ------------------------------------------------------------

 -------------
 FuncsN12SX2nd
 -------------
 Symbolic Z-matrix:
 Charge =  0 Multiplicity = 1

 SCF Done:  E(RN12SX) =  -363.651854015     A.U. after   15 cycles
 Total Energy, E(TD-HF/TD-DFT) =  -363.465937048
 SCF Done:  E(RN12SX) =  -363.648587289     A.U. after   12 cycles
 Total Energy, E(TD-HF/TD-DFT) =  -363.469223122
 SCF Done:  E(RN12SX) =  -363.647371452     A.U. after   12 cycles
 Total Energy, E(TD-HF/TD-DFT) =  -363.471498164
 SCF Done:  E(RN12SX) =  -363.639092870     A.U. after   12 cycles
 Total Energy, E(TD-HF/TD-DFT) =  -363.471008923
 SCF Done:  E(RN12SX) =  -363.646233926     A.U. after   11 cycles
 Total Energy, E(TD-HF/TD-DFT) =  -363.473581727
 SCF Done:  E(RN12SX) =  -363.647204941     A.U. after   12 cycles
 Total Energy, E(TD-HF/TD-DFT) =  -363.475540816
 SCF Done:  E(RN12SX) =  -363.644409493     A.U. after   12 cycles
 Total Energy, E(TD-HF/TD-DFT) =  -363.477219339
 SCF Done:  E(RN12SX) =  -363.643204320     A.U. after   12 cycles
 Total Energy, E(TD-HF/TD-DFT) =  -363.478373836
 SCF Done:  E(RN12SX) =  -363.632183630     A.U. after   12 cycles
 Total Energy, E(TD-HF/TD-DFT) =  -363.477522423
 SCF Done:  E(RN12SX) =  -363.640698951     A.U. after   12 cycles
 Total Energy, E(TD-HF/TD-DFT) =  -363.479659031
 SCF Done:  E(RN12SX) =  -363.636608052     A.U. after   13 cycles
 Total Energy, E(TD-HF/TD-DFT) =  -363.470755473
 SCF Done:  E(RN12SX) =  -363.641628115     A.U. after   11 cycles
 Total Energy, E(TD-HF/TD-DFT) =  -363.479790963
 SCF Done:  E(RN12SX) =  -363.641953220     A.U. after   11 cycles
 Total Energy, E(TD-HF/TD-DFT) =  -363.479978889
 SCF Done:  E(RN12SX) =  -363.641647736     A.U. after    9 cycles
 Total Energy, E(TD-HF/TD-DFT) =  -363.479994871
 SCF Done:  E(RN12SX) =  -363.641624688     A.U. after    8 cycles
 Total Energy, E(TD-HF/TD-DFT) =  -363.479997202
 SCF Done:  E(RN12SX) =  -363.641627328     A.U. after    8 cycles

 Excitation energies and oscillator strengths:

 Excited State   1:      Singlet-A      4.9683 eV  249.55 nm  f=0.0104  <S**2>=0.000
      30 -> 32         0.54500
      31 -> 33        -0.43829

 Excited State   2:      Singlet-A      4.3982 eV  281.90 nm  f=0.0957  <S**2>=0.000
      29 -> 32        -0.11321
      30 -> 33        -0.10040
      31 -> 32        -0.68230
 This state for optimization and/or second-order correction.
 Total Energy, E(TD-HF/TD-DFT) =  -363.479997705
 Copying the excited state density for this state as the 1-particle RhoCI density.

 Excited State   3:      Singlet-A      6.0987 eV  203.30 nm  f=0.3262  <S**2>=0.000
      29 -> 32        -0.38274
      30 -> 32         0.28163
      30 -> 33         0.15992
      31 -> 32         0.10318
      31 -> 33         0.42374
      31 -> 34        -0.22116

 Excited State   4:      Singlet-A      6.3708 eV  194.61 nm  f=0.3444  <S**2>=0.000
      29 -> 32        -0.43453
      29 -> 33        -0.14025
      30 -> 32        -0.31430
      30 -> 33         0.13105
      31 -> 33        -0.33758
      31 -> 34        -0.24135

 Excited State   5:      Singlet-A      6.6150 eV  187.43 nm  f=0.0001  <S**2>=0.000
      31 -> 35         0.70312

 Excited State   6:      Singlet-A      6.8200 eV  181.79 nm  f=0.0200  <S**2>=0.000
      29 -> 32        -0.23919
      29 -> 33         0.14245
      30 -> 33         0.29022
      31 -> 34         0.56627

 Optimization completed.
    -- Stationary point found.

                         Standard orientation:
 ---------------------------------------------------------------------
 Center     Atomic      Atomic             Coordinates (Angstroms)
 Number     Number       Type             X           Y           Z
 ---------------------------------------------------------------------
      1          6           0       -2.186076    0.647236   -0.000096
      2          6           0       -2.135381   -0.729178    0.000067
      3          6           0       -0.893195   -1.456111    0.000139
      4          6           0        0.249365   -0.646967   -0.000042
      5          6           0        0.225731    0.748320    0.000014
      6          6           0       -1.009836    1.447783   -0.000015
      7          7           0        1.602061   -1.033466    0.000100
      8          6           0        1.585828    1.176339    0.000111
      9          6           0        2.423265    0.023583   -0.000070
     10          1           0        1.905686   -1.992171    0.000459
     11          1           0        1.945150    2.192429   -0.000156
     12          1           0        3.493879   -0.067318   -0.000414
     13          1           0       -3.058848   -1.293365    0.000522
     14          1           0       -0.856644   -2.533978   -0.001588
     15          1           0       -3.151165    1.136667   -0.000031
     16          1           0       -1.050680    2.525962   -0.000141
 ---------------------------------------------------------------------

 The electronic state is 1-A.
 Alpha  occ. eigenvalues --  -14.42832 -10.26889 -10.26424 -10.24029 -10.23332
 Alpha  occ. eigenvalues --  -10.23018 -10.22898 -10.22618 -10.21783  -0.97401
 Alpha  occ. eigenvalues --   -0.82934  -0.76562  -0.73044  -0.69856  -0.61949
 Alpha  occ. eigenvalues --   -0.58472  -0.56646  -0.53172  -0.47268  -0.46241
 Alpha  occ. eigenvalues --   -0.42630  -0.42140  -0.41048  -0.39063  -0.38039
 Alpha  occ. eigenvalues --   -0.33786  -0.33099  -0.32124  -0.25722  -0.21706
 Alpha  occ. eigenvalues --   -0.17892
 Alpha virt. eigenvalues --   -0.01930   0.03131   0.06703   0.08367   0.11035
 Alpha virt. eigenvalues --    0.14017   0.15160   0.17239   0.18136   0.18222
 Alpha virt. eigenvalues --    0.19431   0.22914   0.25274   0.27591   0.29374

 Mulliken charges:
               1
     1  C   -0.161144
     2  C   -0.172889
     3  C   -0.260191
     4  C    0.289900
     5  C    0.123318
     6  C   -0.280002
     7  N   -0.625576
     8  C   -0.239905
     9  C    0.057642
    10  H    0.359976
    11  H    0.189620
    12  H    0.198231
    13  H    0.135116
    14  H    0.125774
    15  H    0.132169
    16  H    0.127961
 Sum of Mulliken charges =  -0.00000

 Dipole moment (field-independent basis, Debye):
    X=              4.6680    Y=             -1.2591    Z=             -0.0012  Tot=              4.8348
 Quadrupole moment (field-independent basis, Debye-Ang):
   XX=            -41.5592   YY=            -43.8911   ZZ=            -56.5139
   XY=             -2.4391   XZ=              0.0001   YZ=              0.0019

 Normal termination of Gaussian 16 at Thu Mar  4 06:09:33 2021.
