 Gaussian 16, Revision C.01,
 Gaussian 16:  AS64L-G16RevC.01  3-Jul-2019

 ---------------------------------------------------------
 # td= (nstates=6, root=2) BMK/6-31+G* Opt density=current
 ---------------------------------------------------------

 --------------
 FuncsBMK-V-2nd
 --------------
 Symbolic Z-matrix:
 Charge =  0 Multiplicity = 1

 SCF Done:  E(RBMK) =  -363.584024432     A.U. after   14 cycles
 Total Energy, E(TD-HF/TD-DFT) =  -363.393047297
 SCF Done:  E(RBMK) =  -363.580787661     A.U. after   13 cycles
 Total Energy, E(TD-HF/TD-DFT) =  -363.402285014
 SCF Done:  E(RBMK) =  -363.571155923     A.U. after   13 cycles
 Total Energy, E(TD-HF/TD-DFT) =  -363.406570894
 SCF Done:  E(RBMK) =  -363.571868478     A.U. after   13 cycles
 Total Energy, E(TD-HF/TD-DFT) =  -363.408730151
 SCF Done:  E(RBMK) =  -363.573177202     A.U. after   13 cycles
 Total Energy, E(TD-HF/TD-DFT) =  -363.410098735
 SCF Done:  E(RBMK) =  -363.573450414     A.U. after   11 cycles
 Total Energy, E(TD-HF/TD-DFT) =  -363.410129062
 SCF Done:  E(RBMK) =  -363.573587677     A.U. after   10 cycles

 Excitation energies and oscillator strengths:

 Excited State   1:      Singlet-A      4.9852 eV  248.70 nm  f=0.0125  <S**2>=0.000
      30 -> 32        -0.55515
      31 -> 34         0.41701

 Excited State   2:      Singlet-A      4.4478 eV  278.75 nm  f=0.1383  <S**2>=0.000
      30 -> 34         0.10389
      31 -> 32         0.68933
 This state for optimization and/or second-order correction.
 Total Energy, E(TD-HF/TD-DFT) =  -363.410133917
 Copying the excited state density for this state as the 1-particle RhoCI density.

 Excited State   3:      Singlet-A      5.3198 eV  233.06 nm  f=0.0025  <S**2>=0.000
      31 -> 33         0.69564

 Excited State   4:      Singlet-A      5.9542 eV  208.23 nm  f=0.0003  <S**2>=0.000
      31 -> 35         0.69021

 Excited State   5:      Singlet-A      6.0562 eV  204.72 nm  f=0.0025  <S**2>=0.000
      31 -> 36         0.67731
      31 -> 37         0.14004

 Excited State   6:      Singlet-A      6.0748 eV  204.10 nm  f=0.5924  <S**2>=0.000
      29 -> 32        -0.10348
      30 -> 32         0.36549
      31 -> 34         0.53956
      31 -> 39         0.21042

 Optimization completed.
    -- Stationary point found.

                         Standard orientation:
 ---------------------------------------------------------------------
 Center     Atomic      Atomic             Coordinates (Angstroms)
 Number     Number       Type             X           Y           Z
 ---------------------------------------------------------------------
      1          6           0       -2.205525    0.647344   -0.000056
      2          6           0       -2.150035   -0.739257   -0.000010
      3          6           0       -0.885327   -1.467099    0.000047
      4          6           0        0.259457   -0.654911    0.000060
      5          6           0        0.232988    0.759150   -0.000005
      6          6           0       -1.021645    1.457151   -0.000042
      7          7           0        1.609691   -1.036440    0.000048
      8          6           0        1.589753    1.192365   -0.000040
      9          6           0        2.432656    0.022816   -0.000002
     10          1           0        1.917484   -2.001197    0.000244
     11          1           0        1.956460    2.213292   -0.000134
     12          1           0        3.510341   -0.075786   -0.000037
     13          1           0       -3.074660   -1.313775   -0.000027
     14          1           0       -0.846359   -2.552624    0.000027
     15          1           0       -3.177676    1.137272   -0.000091
     16          1           0       -1.067347    2.542540   -0.000033
 ---------------------------------------------------------------------

 The electronic state is 1-A.
 Alpha  occ. eigenvalues --  -14.72828 -10.52864 -10.52118 -10.49512 -10.48778
 Alpha  occ. eigenvalues --  -10.48486 -10.48438 -10.48060 -10.47301  -1.06714
 Alpha  occ. eigenvalues --   -0.90658  -0.84324  -0.80580  -0.77105  -0.68762
 Alpha  occ. eigenvalues --   -0.65249  -0.63219  -0.59395  -0.53463  -0.52172
 Alpha  occ. eigenvalues --   -0.48256  -0.47671  -0.47346  -0.44716  -0.43418
 Alpha  occ. eigenvalues --   -0.38924  -0.38451  -0.37639  -0.30982  -0.26364
 Alpha  occ. eigenvalues --   -0.22289
 Alpha virt. eigenvalues --   -0.00329   0.03001   0.04897   0.04926   0.05561
 Alpha virt. eigenvalues --    0.06592   0.07054   0.07511   0.09086   0.09403
 Alpha virt. eigenvalues --    0.09947   0.10164   0.12471   0.12876   0.13444

 Mulliken charges:
               1
     1  C   -0.033162
     2  C   -0.339972
     3  C   -0.307673
     4  C   -1.048736
     5  C    1.271755
     6  C   -0.611559
     7  N   -0.434050
     8  C    0.125743
     9  C   -0.243632
    10  H    0.439661
    11  H    0.229877
    12  H    0.233721
    13  H    0.178425
    14  H    0.179804
    15  H    0.176905
    16  H    0.182895
 Sum of Mulliken charges =  -0.00000

 Dipole moment (field-independent basis, Debye):
    X=              4.4977    Y=             -1.3370    Z=              0.0001  Tot=              4.6922
 Quadrupole moment (field-independent basis, Debye-Ang):
   XX=            -43.8230   YY=            -46.0404   ZZ=            -60.5948
   XY=             -2.3890   XZ=              0.0005   YZ=             -0.0008

 Normal termination of Gaussian 16 at Wed Jun 23 10:09:21 2021.
