 Gaussian 16, Revision C.01,
 Gaussian 16:  ES64L-G16RevC.01  3-Jul-2019

 -----------------------------------------------------------
 # td= (nstates=6, root=1) APFD/6-31G(d) Opt density=current
 -----------------------------------------------------------

 ---------
 FuncsAPFD
 ---------
 Symbolic Z-matrix:
 Charge =  0 Multiplicity = 1

 SCF Done:  E(RAPFD) =  -363.518094167     A.U. after   14 cycles
 Total Energy, E(TD-HF/TD-DFT) =  -363.335895086
 SCF Done:  E(RAPFD) =  -363.511453421     A.U. after   12 cycles
 Total Energy, E(TD-HF/TD-DFT) =  -363.343840815
 SCF Done:  E(RAPFD) =  -363.506581010     A.U. after   12 cycles
 Total Energy, E(TD-HF/TD-DFT) =  -363.345450042
 SCF Done:  E(RAPFD) =  -363.506153411     A.U. after   10 cycles
 Total Energy, E(TD-HF/TD-DFT) =  -363.345707818
 SCF Done:  E(RAPFD) =  -363.506151332     A.U. after   10 cycles
 Total Energy, E(TD-HF/TD-DFT) =  -363.345808755
 SCF Done:  E(RAPFD) =  -363.506403053     A.U. after    9 cycles

 Excitation energies and oscillator strengths:

 Excited State   1:      Singlet-A      4.3697 eV  283.74 nm  f=0.0906  <S**2>=0.000
      29 -> 32         0.11949
      31 -> 32         0.68199
 This state for optimization and/or second-order correction.
 Total Energy, E(TD-HF/TD-DFT) =  -363.345819328
 Copying the excited state density for this state as the 1-particle RhoCI density.

 Excited State   2:      Singlet-A      4.9522 eV  250.36 nm  f=0.0101  <S**2>=0.000
      30 -> 32         0.54527
      31 -> 33        -0.43704

 Excited State   3:      Singlet-A      6.1003 eV  203.24 nm  f=0.3500  <S**2>=0.000
      29 -> 32        -0.37446
      30 -> 32         0.28522
      30 -> 33         0.15051
      31 -> 32         0.10865
      31 -> 33         0.43235
      31 -> 34        -0.21464

 Excited State   4:      Singlet-A      6.3632 eV  194.85 nm  f=0.3306  <S**2>=0.000
      29 -> 32        -0.43837
      29 -> 33        -0.13979
      30 -> 32        -0.30887
      30 -> 33         0.13408
      31 -> 33        -0.32779
      31 -> 34        -0.25193

 Excited State   5:      Singlet-A      6.6091 eV  187.60 nm  f=0.0002  <S**2>=0.000
      31 -> 35         0.70282

 Excited State   6:      Singlet-A      6.8343 eV  181.41 nm  f=0.0156  <S**2>=0.000
      29 -> 32        -0.25442
      29 -> 33         0.13975
      30 -> 33         0.27137
      31 -> 34         0.56971

 Optimization completed.
    -- Stationary point found.

                         Standard orientation:
 ---------------------------------------------------------------------
 Center     Atomic      Atomic             Coordinates (Angstroms)
 Number     Number       Type             X           Y           Z
 ---------------------------------------------------------------------
      1          6           0       -2.190560    0.649799   -0.000130
      2          6           0       -2.139964   -0.730644   -0.000048
      3          6           0       -0.895793   -1.462493    0.000075
      4          6           0        0.248606   -0.648075    0.000083
      5          6           0        0.225309    0.749101    0.000023
      6          6           0       -1.010467    1.453201   -0.000086
      7          7           0        1.606020   -1.034213    0.000148
      8          6           0        1.589218    1.178890    0.000094
      9          6           0        2.428664    0.022607   -0.000135
     10          1           0        1.910460   -1.998473    0.000299
     11          1           0        1.950802    2.199591    0.000005
     12          1           0        3.503854   -0.071482   -0.000348
     13          1           0       -3.068201   -1.297856   -0.000070
     14          1           0       -0.859182   -2.545355    0.000065
     15          1           0       -3.160435    1.142243   -0.000197
     16          1           0       -1.049507    2.536507   -0.000043
 ---------------------------------------------------------------------

 The electronic state is 1-A.
 Alpha  occ. eigenvalues --  -14.41368 -10.24451 -10.24006 -10.21707 -10.20976
 Alpha  occ. eigenvalues --  -10.20666 -10.20487 -10.20266 -10.19397  -0.99581
 Alpha  occ. eigenvalues --   -0.84663  -0.78261  -0.74775  -0.71559  -0.63499
 Alpha  occ. eigenvalues --   -0.60007  -0.58168  -0.54566  -0.48720  -0.47608
 Alpha  occ. eigenvalues --   -0.43966  -0.43469  -0.42466  -0.40369  -0.39339
 Alpha  occ. eigenvalues --   -0.35155  -0.34409  -0.33614  -0.27200  -0.23217
 Alpha  occ. eigenvalues --   -0.19353
 Alpha virt. eigenvalues --   -0.01247   0.03853   0.07421   0.09117   0.11615
 Alpha virt. eigenvalues --    0.14689   0.15836   0.17930   0.18823   0.18860
 Alpha virt. eigenvalues --    0.19966   0.23398   0.25728   0.27893   0.29815

 Mulliken charges:
               1
     1  C   -0.175254
     2  C   -0.186160
     3  C   -0.268070
     4  C    0.278850
     5  C    0.099115
     6  C   -0.281340
     7  N   -0.636953
     8  C   -0.239008
     9  C    0.049716
    10  H    0.375863
    11  H    0.202736
    12  H    0.210400
    13  H    0.146556
    14  H    0.139208
    15  H    0.143822
    16  H    0.140520
 Sum of Mulliken charges =  -0.00000

 Dipole moment (field-independent basis, Debye):
    X=              4.8219    Y=             -1.2678    Z=              0.0001  Tot=              4.9858
 Quadrupole moment (field-independent basis, Debye-Ang):
   XX=            -41.7062   YY=            -44.1248   ZZ=            -57.1043
   XY=             -2.4378   XZ=             -0.0002   YZ=             -0.0007

 Normal termination of Gaussian 16 at Mon Feb 15 04:26:40 2021.
