 Gaussian 16, Revision C.01,
 Gaussian 16:  AS64L-G16RevC.01  3-Jul-2019

 --------------------------------------------------------------
 # td= (nstates=6, root=2) SOGGA11X/6-31+G* Opt density=current
 --------------------------------------------------------------

 -------------------
 FuncsSOGGA11X-V-2nd
 -------------------
 Symbolic Z-matrix:
 Charge =  0 Multiplicity = 1

 SCF Done:  E(RSOGGA11X) =  -363.729258520     A.U. after   15 cycles
 Total Energy, E(TD-HF/TD-DFT) =  -363.539846359
 SCF Done:  E(RSOGGA11X) =  -363.723307331     A.U. after   13 cycles
 Total Energy, E(TD-HF/TD-DFT) =  -363.548477553
 SCF Done:  E(RSOGGA11X) =  -363.719760485     A.U. after   13 cycles
 Total Energy, E(TD-HF/TD-DFT) =  -363.549375700
 SCF Done:  E(RSOGGA11X) =  -363.719621681     A.U. after   11 cycles
 Total Energy, E(TD-HF/TD-DFT) =  -363.549420794
 SCF Done:  E(RSOGGA11X) =  -363.719560163     A.U. after   11 cycles
 Total Energy, E(TD-HF/TD-DFT) =  -363.549427612
 SCF Done:  E(RSOGGA11X) =  -363.719596478     A.U. after   10 cycles
 Total Energy, E(TD-HF/TD-DFT) =  -363.549429344
 SCF Done:  E(RSOGGA11X) =  -363.719681687     A.U. after   11 cycles
 Total Energy, E(TD-HF/TD-DFT) =  -363.549432488
 SCF Done:  E(RSOGGA11X) =  -363.720054850     A.U. after   13 cycles
 Total Energy, E(TD-HF/TD-DFT) =  -363.549433277
 SCF Done:  E(RSOGGA11X) =  -363.719652700     A.U. after   13 cycles
 Total Energy, E(TD-HF/TD-DFT) =  -363.549485717
 SCF Done:  E(RSOGGA11X) =  -363.718328721     A.U. after   13 cycles
 Total Energy, E(TD-HF/TD-DFT) =  -363.549618798
 Total Energy, E(TD-HF/TD-DFT) =  -363.549807116
 Total Energy, E(TD-HF/TD-DFT) =  -363.542974765
 Total Energy, E(TD-HF/TD-DFT) =  -363.550434817
 Total Energy, E(TD-HF/TD-DFT) =  -363.552278163
 Total Energy, E(TD-HF/TD-DFT) =  -363.553303475
 Total Energy, E(TD-HF/TD-DFT) =  -363.554390309
 Total Energy, E(TD-HF/TD-DFT) =  -363.554553249
 Total Energy, E(TD-HF/TD-DFT) =  -363.554535097
 Total Energy, E(TD-HF/TD-DFT) =  -363.554573501
 Total Energy, E(TD-HF/TD-DFT) =  -363.554578086
 Total Energy, E(TD-HF/TD-DFT) =  -363.554579208
 Total Energy, E(TD-HF/TD-DFT) =  -363.554580400
 SCF Done:  E(RSOGGA11X) =  -363.718417258     A.U. after   11 cycles
 Total Energy, E(TD-HF/TD-DFT) =  -363.554573494
 SCF Done:  E(RSOGGA11X) =  -363.718687414     A.U. after   13 cycles
 Total Energy, E(TD-HF/TD-DFT) =  -363.553745924
 SCF Done:  E(RSOGGA11X) =  -363.718091615     A.U. after   12 cycles
 Total Energy, E(TD-HF/TD-DFT) =  -363.554398566
 SCF Done:  E(RSOGGA11X) =  -363.718699573     A.U. after    6 cycles
 Total Energy, E(TD-HF/TD-DFT) =  -363.554580477
 SCF Done:  E(RSOGGA11X) =  -363.718514461     A.U. after   12 cycles
 Total Energy, E(TD-HF/TD-DFT) =  -363.554483975
 SCF Done:  E(RSOGGA11X) =  -363.718672033     A.U. after   12 cycles
 Total Energy, E(TD-HF/TD-DFT) =  -363.554575802
 SCF Done:  E(RSOGGA11X) =  -363.718691689     A.U. after   11 cycles
 Total Energy, E(TD-HF/TD-DFT) =  -363.554580860
 SCF Done:  E(RSOGGA11X) =  -363.718606378     A.U. after   11 cycles
 Total Energy, E(TD-HF/TD-DFT) =  -363.554578543
 SCF Done:  E(RSOGGA11X) =  -363.718645591     A.U. after   10 cycles
 Total Energy, E(TD-HF/TD-DFT) =  -363.554581261
 SCF Done:  E(RSOGGA11X) =  -363.718624693     A.U. after    9 cycles

 Excitation energies and oscillator strengths:

 Excited State   1:      Singlet-A      4.7639 eV  260.26 nm  f=0.0025  <S**2>=0.000
      31 -> 33         0.69910

 Excited State   2:      Singlet-A      4.4638 eV  277.75 nm  f=0.1525  <S**2>=0.000
      30 -> 36        -0.11077
      31 -> 32        -0.68887
 This state for optimization and/or second-order correction.
 Total Energy, E(TD-HF/TD-DFT) =  -363.554581369
 Copying the excited state density for this state as the 1-particle RhoCI density.

 Excited State   3:      Singlet-A      4.9994 eV  248.00 nm  f=0.0108  <S**2>=0.000
      30 -> 32         0.55216
      31 -> 36        -0.41639

 Excited State   4:      Singlet-A      5.4243 eV  228.57 nm  f=0.0005  <S**2>=0.000
      31 -> 34         0.68628

 Excited State   5:      Singlet-A      5.5222 eV  224.52 nm  f=0.0023  <S**2>=0.000
      31 -> 35         0.67893
      31 -> 37         0.12334

 Excited State   6:      Singlet-A      5.8667 eV  211.33 nm  f=0.0016  <S**2>=0.000
      30 -> 33         0.66600
      31 -> 37         0.14667

 Optimization completed.
    -- Stationary point found.

                         Standard orientation:
 ---------------------------------------------------------------------
 Center     Atomic      Atomic             Coordinates (Angstroms)
 Number     Number       Type             X           Y           Z
 ---------------------------------------------------------------------
      1          6           0       -2.197122    0.646895   -0.000109
      2          6           0       -2.141877   -0.736165   -0.000175
      3          6           0       -0.883508   -1.461042    0.000051
      4          6           0        0.258508   -0.656429    0.000137
      5          6           0        0.233475    0.754292    0.000198
      6          6           0       -1.019479    1.449447    0.000095
      7          7           0        1.607867   -1.036972    0.000117
      8          6           0        1.580387    1.188127    0.000037
      9          6           0        2.423965    0.030306   -0.000302
     10          1           0        1.922654   -1.996654   -0.000495
     11          1           0        1.942840    2.208410   -0.000072
     12          1           0        3.500105   -0.061022   -0.000144
     13          1           0       -3.065787   -1.308353   -0.000373
     14          1           0       -0.848421   -2.545156    0.000744
     15          1           0       -3.167894    1.135609   -0.000197
     16          1           0       -1.064656    2.533381    0.000136
 ---------------------------------------------------------------------

 The electronic state is 1-A.
 Alpha  occ. eigenvalues --  -14.71341 -10.50104 -10.49414 -10.47081 -10.46446
 Alpha  occ. eigenvalues --  -10.46087 -10.45938 -10.45581 -10.44847  -1.09112
 Alpha  occ. eigenvalues --   -0.93065  -0.86624  -0.82763  -0.79146  -0.70214
 Alpha  occ. eigenvalues --   -0.66688  -0.64632  -0.60324  -0.54460  -0.53030
 Alpha  occ. eigenvalues --   -0.49236  -0.48631  -0.47771  -0.45536  -0.44417
 Alpha  occ. eigenvalues --   -0.39763  -0.39320  -0.37975  -0.31333  -0.26618
 Alpha  occ. eigenvalues --   -0.22599
 Alpha virt. eigenvalues --   -0.00822   0.00424   0.02477   0.03042   0.04207
 Alpha virt. eigenvalues --    0.04325   0.04545   0.06139   0.06659   0.07068
 Alpha virt. eigenvalues --    0.07153   0.07574   0.09660   0.09969   0.11168

 Mulliken charges:
               1
     1  C   -0.098051
     2  C   -0.379939
     3  C   -0.215476
     4  C   -1.078906
     5  C    1.182319
     6  C   -0.642073
     7  N   -0.439169
     8  C    0.038070
     9  C   -0.246208
    10  H    0.469940
    11  H    0.262181
    12  H    0.260368
    13  H    0.218060
    14  H    0.225332
    15  H    0.216406
    16  H    0.227144
 Sum of Mulliken charges =  -0.00000

 Dipole moment (field-independent basis, Debye):
    X=              4.1946    Y=             -1.2887    Z=              0.0019  Tot=              4.3881
 Quadrupole moment (field-independent basis, Debye-Ang):
   XX=            -44.5720   YY=            -46.6028   ZZ=            -61.6623
   XY=             -2.1991   XZ=              0.0026   YZ=             -0.0035

 Normal termination of Gaussian 16 at Wed Jun 16 12:46:34 2021.
