 Gaussian 16, Revision C.01,
 Gaussian 16:  AS64L-G16RevC.01  3-Jul-2019

 ----------------------------------------------------------
 # td= (nstates=6, root=2) APFD/6-31+G* Opt density=current
 ----------------------------------------------------------

 ---------------
 FuncsAPFD-V-2nd
 ---------------
 Symbolic Z-matrix:
 Charge =  0 Multiplicity = 1

 SCF Done:  E(RAPFD) =  -363.529671794     A.U. after   14 cycles
 Total Energy, E(TD-HF/TD-DFT) =  -363.346213289
 SCF Done:  E(RAPFD) =  -363.526041517     A.U. after   12 cycles
 Total Energy, E(TD-HF/TD-DFT) =  -363.351613009
 SCF Done:  E(RAPFD) =  -363.525511941     A.U. after   11 cycles
 Total Energy, E(TD-HF/TD-DFT) =  -363.351408994
 SCF Done:  E(RAPFD) =  -363.525797526     A.U. after   11 cycles
 Total Energy, E(TD-HF/TD-DFT) =  -363.351767820
 SCF Done:  E(RAPFD) =  -363.525780585     A.U. after   11 cycles
 Total Energy, E(TD-HF/TD-DFT) =  -363.351810679
 SCF Done:  E(RAPFD) =  -363.525741471     A.U. after   10 cycles
 Total Energy, E(TD-HF/TD-DFT) =  -363.351816938
 SCF Done:  E(RAPFD) =  -363.525703837     A.U. after   10 cycles

 Excitation energies and oscillator strengths:

 Excited State   1:      Singlet-A      4.6853 eV  264.62 nm  f=0.0851  <S**2>=0.000
      30 -> 32        -0.17838
      30 -> 34         0.16016
      31 -> 32         0.65122

 Excited State   2:      Singlet-A      4.7317 eV  262.03 nm  f=0.0517  <S**2>=0.000
      30 -> 32         0.57003
      31 -> 32         0.15899
      31 -> 34        -0.37489
 This state for optimization and/or second-order correction.
 Total Energy, E(TD-HF/TD-DFT) =  -363.351817755
 Copying the excited state density for this state as the 1-particle RhoCI density.

 Excited State   3:      Singlet-A      5.1022 eV  243.00 nm  f=0.0026  <S**2>=0.000
      31 -> 33         0.70333

 Excited State   4:      Singlet-A      5.4787 eV  226.30 nm  f=0.0018  <S**2>=0.000
      30 -> 33         0.69800

 Excited State   5:      Singlet-A      5.6903 eV  217.89 nm  f=0.0000  <S**2>=0.000
      31 -> 35         0.69616

 Excited State   6:      Singlet-A      5.7974 eV  213.86 nm  f=0.0014  <S**2>=0.000
      31 -> 36         0.69492

 Optimization completed.
    -- Stationary point found.

                         Standard orientation:
 ---------------------------------------------------------------------
 Center     Atomic      Atomic             Coordinates (Angstroms)
 Number     Number       Type             X           Y           Z
 ---------------------------------------------------------------------
      1          6           0       -2.161646    0.701010   -0.000013
      2          6           0       -2.142546   -0.731564    0.000038
      3          6           0       -0.934976   -1.458572    0.000042
      4          6           0        0.250547   -0.684263   -0.000009
      5          6           0        0.258963    0.775362   -0.000031
      6          6           0       -0.971510    1.474647   -0.000045
      7          7           0        1.557206   -1.085285   -0.000070
      8          6           0        1.617066    1.169266    0.000006
      9          6           0        2.400245    0.021686    0.000031
     10          1           0        1.866489   -2.045080    0.000406
     11          1           0        1.995795    2.183356   -0.000020
     12          1           0        3.474212   -0.100521    0.000002
     13          1           0       -3.088521   -1.266223    0.000059
     14          1           0       -0.916230   -2.544026    0.000030
     15          1           0       -3.124713    1.204738   -0.000027
     16          1           0       -1.004333    2.559315   -0.000069
 ---------------------------------------------------------------------

 The electronic state is 1-A.
 Alpha  occ. eigenvalues --  -14.42544 -10.25232 -10.25203 -10.22244 -10.21779
 Alpha  occ. eigenvalues --  -10.21717 -10.21693 -10.21277 -10.20630  -1.00366
 Alpha  occ. eigenvalues --   -0.84817  -0.80135  -0.74686  -0.73101  -0.63907
 Alpha  occ. eigenvalues --   -0.61131  -0.59250  -0.55032  -0.49976  -0.47957
 Alpha  occ. eigenvalues --   -0.44614  -0.44288  -0.43271  -0.41717  -0.40287
 Alpha  occ. eigenvalues --   -0.36360  -0.34721  -0.33916  -0.29129  -0.22789
 Alpha  occ. eigenvalues --   -0.21434
 Alpha virt. eigenvalues --   -0.02113   0.00601   0.01695   0.02531   0.03063
 Alpha virt. eigenvalues --    0.04546   0.04673   0.04898   0.06775   0.06956
 Alpha virt. eigenvalues --    0.07421   0.07452   0.09332   0.09748   0.11484

 Mulliken charges:
               1
     1  C   -0.026385
     2  C   -0.458395
     3  C   -0.302764
     4  C   -1.045784
     5  C    1.504373
     6  C   -0.782355
     7  N   -0.422722
     8  C    0.074045
     9  C   -0.272213
    10  H    0.440313
    11  H    0.223170
    12  H    0.226706
    13  H    0.209615
    14  H    0.209984
    15  H    0.208939
    16  H    0.213474
 Sum of Mulliken charges =  -0.00000

 Dipole moment (field-independent basis, Debye):
    X=              2.1018    Y=             -1.4406    Z=              0.0004  Tot=              2.5481
 Quadrupole moment (field-independent basis, Debye-Ang):
   XX=            -45.3605   YY=            -45.5595   ZZ=            -60.0255
   XY=             -3.0335   XZ=              0.0009   YZ=             -0.0014

 Normal termination of Gaussian 16 at Tue Jun 15 12:16:10 2021.
