 Gaussian 16, Revision C.01,
 Gaussian 16:  AS64L-G16RevC.01  3-Jul-2019

 ----------------------------------------------------------
 # td= (nstates=6, root=2) MN15/6-31+G* Opt density=current
 ----------------------------------------------------------

 ---------------
 FuncsMN15-V-2nd
 ---------------
 Symbolic Z-matrix:
 Charge =  0 Multiplicity = 1

 SCF Done:  E(RMN15) =  -363.386843859     A.U. after   15 cycles
 Total Energy, E(TD-HF/TD-DFT) =  -363.200743706
 SCF Done:  E(RMN15) =  -363.382243533     A.U. after   13 cycles
 Total Energy, E(TD-HF/TD-DFT) =  -363.209317139
 SCF Done:  E(RMN15) =  -363.372596534     A.U. after   13 cycles
 Total Energy, E(TD-HF/TD-DFT) =  -363.212539142
 SCF Done:  E(RMN15) =  -363.374331840     A.U. after   13 cycles
 Total Energy, E(TD-HF/TD-DFT) =  -363.213727464
 SCF Done:  E(RMN15) =  -363.375456514     A.U. after   13 cycles
 Total Energy, E(TD-HF/TD-DFT) =  -363.214300055
 SCF Done:  E(RMN15) =  -363.375817858     A.U. after   11 cycles
 Total Energy, E(TD-HF/TD-DFT) =  -363.214312484
 SCF Done:  E(RMN15) =  -363.375891563     A.U. after   10 cycles

 Excitation energies and oscillator strengths:

 Excited State   1:      Singlet-A      4.8854 eV  253.78 nm  f=0.0100  <S**2>=0.000
      30 -> 32        -0.54889
      31 -> 34         0.42549

 Excited State   2:      Singlet-A      4.3967 eV  281.99 nm  f=0.1449  <S**2>=0.000
      30 -> 34         0.10764
      31 -> 32         0.68859
 This state for optimization and/or second-order correction.
 Total Energy, E(TD-HF/TD-DFT) =  -363.214315202
 Copying the excited state density for this state as the 1-particle RhoCI density.

 Excited State   3:      Singlet-A      5.5313 eV  224.15 nm  f=0.0055  <S**2>=0.000
      31 -> 33         0.68812

 Excited State   4:      Singlet-A      5.9393 eV  208.75 nm  f=0.5799  <S**2>=0.000
      30 -> 32         0.38027
      31 -> 34         0.53766
      31 -> 37        -0.18768

 Excited State   5:      Singlet-A      6.1291 eV  202.29 nm  f=0.0000  <S**2>=0.000
      31 -> 35         0.67806

 Excited State   6:      Singlet-A      6.2378 eV  198.76 nm  f=0.0075  <S**2>=0.000
      31 -> 36         0.65776
      31 -> 38         0.10555
      31 -> 39         0.12517

 Optimization completed.
    -- Stationary point found.

                         Standard orientation:
 ---------------------------------------------------------------------
 Center     Atomic      Atomic             Coordinates (Angstroms)
 Number     Number       Type             X           Y           Z
 ---------------------------------------------------------------------
      1          6           0       -2.197954    0.646022   -0.000001
      2          6           0       -2.143305   -0.736527    0.000030
      3          6           0       -0.884054   -1.461926    0.000023
      4          6           0        0.256249   -0.655185    0.000029
      5          6           0        0.231572    0.753524   -0.000035
      6          6           0       -1.020153    1.450467   -0.000044
      7          7           0        1.611835   -1.038584    0.000003
      8          6           0        1.579513    1.187883   -0.000151
      9          6           0        2.427630    0.032823    0.000127
     10          1           0        1.925078   -2.004081    0.000099
     11          1           0        1.937385    2.210525   -0.000230
     12          1           0        3.504961   -0.053345    0.000254
     13          1           0       -3.068091   -1.309091    0.000045
     14          1           0       -0.845939   -2.546803    0.000008
     15          1           0       -3.169625    1.134971   -0.000018
     16          1           0       -1.063596    2.535419   -0.000060
 ---------------------------------------------------------------------

 The electronic state is 1-A.
 Alpha  occ. eigenvalues --  -14.17658 -10.11397 -10.10782 -10.08371 -10.07727
 Alpha  occ. eigenvalues --  -10.07431 -10.07238 -10.06956 -10.06130  -1.02750
 Alpha  occ. eigenvalues --   -0.88087  -0.81881  -0.78137  -0.74783  -0.66973
 Alpha  occ. eigenvalues --   -0.63673  -0.61739  -0.58236  -0.52267  -0.51297
 Alpha  occ. eigenvalues --   -0.47798  -0.47152  -0.47089  -0.44171  -0.43089
 Alpha  occ. eigenvalues --   -0.38592  -0.38263  -0.37702  -0.31111  -0.26576
 Alpha  occ. eigenvalues --   -0.22569
 Alpha virt. eigenvalues --   -0.00387   0.04457   0.04632   0.06256   0.07003
 Alpha virt. eigenvalues --    0.07581   0.08361   0.08600   0.09958   0.10826
 Alpha virt. eigenvalues --    0.11224   0.11270   0.13272   0.13563   0.14803

 Mulliken charges:
               1
     1  C    0.016026
     2  C   -0.311028
     3  C   -0.358975
     4  C   -0.649129
     5  C    1.043188
     6  C   -0.758085
     7  N   -0.470503
     8  C    0.352839
     9  C   -0.355335
    10  H    0.422292
    11  H    0.204786
    12  H    0.213497
    13  H    0.161014
    14  H    0.163952
    15  H    0.158646
    16  H    0.166815
 Sum of Mulliken charges =  -0.00000

 Dipole moment (field-independent basis, Debye):
    X=              4.4063    Y=             -1.3712    Z=              0.0000  Tot=              4.6147
 Quadrupole moment (field-independent basis, Debye-Ang):
   XX=            -44.5394   YY=            -46.6697   ZZ=            -60.3211
   XY=             -2.4125   XZ=              0.0006   YZ=             -0.0006

 Normal termination of Gaussian 16 at Wed Jun 23 09:48:25 2021.
