 Gaussian 16, Revision C.01,
 Gaussian 16:  AS64L-G16RevC.01  3-Jul-2019

 ---------------------------------------------------------------
 # td= (nstates=6, root=3) CAM-B3LYP/6-31+G* Opt density=current
 ---------------------------------------------------------------

 --------------------
 FuncsCAM-B3LYP-V-3rd
 --------------------
 Symbolic Z-matrix:
 Charge =  0 Multiplicity = 1

 SCF Done:  E(RCAM-B3LYP) =  -363.624676885     A.U. after   15 cycles
 Total Energy, E(TD-HF/TD-DFT) =  -363.430447648
 SCF Done:  E(RCAM-B3LYP) =  -363.618967195     A.U. after   14 cycles
 Total Energy, E(TD-HF/TD-DFT) =  -363.438321129
 SCF Done:  E(RCAM-B3LYP) =  -363.614714136     A.U. after   14 cycles
 Total Energy, E(TD-HF/TD-DFT) =  -363.439350276
 SCF Done:  E(RCAM-B3LYP) =  -363.614398738     A.U. after   12 cycles
 Total Energy, E(TD-HF/TD-DFT) =  -363.439419555
 SCF Done:  E(RCAM-B3LYP) =  -363.614212271     A.U. after   12 cycles
 Total Energy, E(TD-HF/TD-DFT) =  -363.439431459
 SCF Done:  E(RCAM-B3LYP) =  -363.614236649     A.U. after   10 cycles

 Excitation energies and oscillator strengths:

 Excited State   1:      Singlet-A      4.6978 eV  263.92 nm  f=0.1665  <S**2>=0.000
      30 -> 37        -0.13703
      31 -> 33        -0.68048

 Excited State   2:      Singlet-A      5.0789 eV  244.12 nm  f=0.0056  <S**2>=0.000
      30 -> 33        -0.50767
      31 -> 37         0.45860

 Excited State   3:      Singlet-A      4.7566 eV  260.66 nm  f=0.0026  <S**2>=0.000
      31 -> 32         0.69202
 This state for optimization and/or second-order correction.
 Total Energy, E(TD-HF/TD-DFT) =  -363.439433530
 Copying the excited state density for this state as the 1-particle RhoCI density.

 Excited State   4:      Singlet-A      5.5606 eV  222.97 nm  f=0.0008  <S**2>=0.000
      31 -> 34         0.64409
      31 -> 35        -0.22210

 Excited State   5:      Singlet-A      5.6138 eV  220.86 nm  f=0.0074  <S**2>=0.000
      31 -> 34         0.20892
      31 -> 35         0.61966
      31 -> 36         0.18033

 Excited State   6:      Singlet-A      5.9015 eV  210.09 nm  f=0.0014  <S**2>=0.000
      30 -> 32         0.67572

 Optimization completed.
    -- Stationary point found.

                         Standard orientation:
 ---------------------------------------------------------------------
 Center     Atomic      Atomic             Coordinates (Angstroms)
 Number     Number       Type             X           Y           Z
 ---------------------------------------------------------------------
      1          6           0       -2.180431    0.639122   -0.000101
      2          6           0       -2.097389   -0.758323   -0.000017
      3          6           0       -0.865160   -1.437456    0.000055
      4          6           0        0.267048   -0.661223    0.000081
      5          6           0        0.216326    0.759354   -0.000019
      6          6           0       -1.031113    1.414153   -0.000136
      7          7           0        1.617222   -1.025763    0.000095
      8          6           0        1.548490    1.209015    0.000059
      9          6           0        2.372389    0.044671   -0.000022
     10          1           0        2.005314   -2.010501    0.000047
     11          1           0        1.909336    2.229594    0.000033
     12          1           0        3.454165   -0.047353   -0.000087
     13          1           0       -3.011885   -1.342147    0.000021
     14          1           0       -0.815987   -2.518281    0.000170
     15          1           0       -3.154709    1.115668   -0.000113
     16          1           0       -1.087753    2.497485   -0.000132
 ---------------------------------------------------------------------

 The electronic state is 1-A.
 Alpha  occ. eigenvalues --  -14.46813 -10.30079 -10.29432 -10.26694 -10.26005
 Alpha  occ. eigenvalues --  -10.25946 -10.25930 -10.25631 -10.24889  -1.07952
 Alpha  occ. eigenvalues --   -0.92837  -0.86092  -0.82590  -0.78935  -0.70522
 Alpha  occ. eigenvalues --   -0.67040  -0.65726  -0.61570  -0.55326  -0.54379
 Alpha  occ. eigenvalues --   -0.51126  -0.50268  -0.50249  -0.47083  -0.45600
 Alpha  occ. eigenvalues --   -0.42001  -0.40741  -0.40240  -0.33888  -0.28642
 Alpha  occ. eigenvalues --   -0.24582
 Alpha virt. eigenvalues --    0.01950   0.02242   0.04260   0.04852   0.06204
 Alpha virt. eigenvalues --    0.06345   0.06408   0.08105   0.08543   0.09021
 Alpha virt. eigenvalues --    0.09114   0.09253   0.11354   0.11877   0.13042

 Mulliken charges:
               1
     1  C   -0.048339
     2  C   -0.491367
     3  C    0.611319
     4  C   -0.752520
     5  C    0.342752
     6  C   -0.494091
     7  N    0.660973
     8  C   -3.787298
     9  C    2.173378
    10  H    0.362988
    11  H    0.243313
    12  H    0.279388
    13  H    0.216776
    14  H    0.254376
    15  H    0.207734
    16  H    0.220616
 Sum of Mulliken charges =  -0.00000

 Dipole moment (field-independent basis, Debye):
    X=             -6.2577    Y=              6.0799    Z=             -0.0030  Tot=              8.7249
 Quadrupole moment (field-independent basis, Debye-Ang):
   XX=            -65.8026   YY=            -63.1119   ZZ=            -65.0420
   XY=             16.5968   XZ=             -0.0068   YZ=              0.0035

 Normal termination of Gaussian 16 at Wed Jun 23 08:59:36 2021.
