 Gaussian 16, Revision C.01,
 Gaussian 16:  AS64L-G16RevC.01  3-Jul-2019

 ---------------------------------------------------------------
 # td= (nstates=6, root=2) BHandHLYP/6-31+G* Opt density=current
 ---------------------------------------------------------------

 --------------------
 FuncsBHandHLYP-V-2nd
 --------------------
 Symbolic Z-matrix:
 Charge =  0 Multiplicity = 1

 SCF Done:  E(RBHandHLYP) =  -363.604797963     A.U. after   15 cycles
 Total Energy, E(TD-HF/TD-DFT) =  -363.413768119
 SCF Done:  E(RBHandHLYP) =  -363.600524487     A.U. after   13 cycles
 Total Energy, E(TD-HF/TD-DFT) =  -363.417591693
 SCF Done:  E(RBHandHLYP) =  -363.599076871     A.U. after   12 cycles
 Total Energy, E(TD-HF/TD-DFT) =  -363.418401404
 SCF Done:  E(RBHandHLYP) =  -363.596426230     A.U. after   13 cycles
 Total Energy, E(TD-HF/TD-DFT) =  -363.418875402
 SCF Done:  E(RBHandHLYP) =  -363.597736744     A.U. after   12 cycles
 Total Energy, E(TD-HF/TD-DFT) =  -363.419245740
 SCF Done:  E(RBHandHLYP) =  -363.597951661     A.U. after   14 cycles
 Total Energy, E(TD-HF/TD-DFT) =  -363.420516953
 SCF Done:  E(RBHandHLYP) =  -363.584085847     A.U. after   14 cycles
 Total Energy, E(TD-HF/TD-DFT) =  -363.417359636
 SCF Done:  E(RBHandHLYP) =  -363.598990685     A.U. after   13 cycles
 Total Energy, E(TD-HF/TD-DFT) =  -363.421724974
 SCF Done:  E(RBHandHLYP) =  -363.576268742     A.U. after   14 cycles
 Total Energy, E(TD-HF/TD-DFT) =  -363.414832449
 SCF Done:  E(RBHandHLYP) =  -363.589600953     A.U. after   13 cycles
 Total Energy, E(TD-HF/TD-DFT) =  -363.422094219
 SCF Done:  E(RBHandHLYP) =  -363.591444633     A.U. after   14 cycles
 Total Energy, E(TD-HF/TD-DFT) =  -363.424803788
 SCF Done:  E(RBHandHLYP) =  -363.592679908     A.U. after   12 cycles
 Total Energy, E(TD-HF/TD-DFT) =  -363.425530937
 SCF Done:  E(RBHandHLYP) =  -363.593632090     A.U. after   12 cycles
 Total Energy, E(TD-HF/TD-DFT) =  -363.425634425
 SCF Done:  E(RBHandHLYP) =  -363.589625284     A.U. after   14 cycles
 Total Energy, E(TD-HF/TD-DFT) =  -363.423952428
 SCF Done:  E(RBHandHLYP) =  -363.593443866     A.U. after   13 cycles
 Total Energy, E(TD-HF/TD-DFT) =  -363.425597297
 SCF Done:  E(RBHandHLYP) =  -363.593607789     A.U. after    7 cycles
 Total Energy, E(TD-HF/TD-DFT) =  -363.425636368
 SCF Done:  E(RBHandHLYP) =  -363.593531838     A.U. after   11 cycles

 Excitation energies and oscillator strengths:

 Excited State   1:      Singlet-A      4.8676 eV  254.71 nm  f=0.0042  <S**2>=0.000
      31 -> 33         0.69411

 Excited State   2:      Singlet-A      4.5686 eV  271.38 nm  f=0.1885  <S**2>=0.000
      30 -> 38        -0.12317
      31 -> 32        -0.68840
 This state for optimization and/or second-order correction.
 Total Energy, E(TD-HF/TD-DFT) =  -363.425637432
 Copying the excited state density for this state as the 1-particle RhoCI density.

 Excited State   3:      Singlet-A      5.0922 eV  243.48 nm  f=0.0112  <S**2>=0.000
      30 -> 32         0.55067
      31 -> 38        -0.40869

 Excited State   4:      Singlet-A      5.5057 eV  225.19 nm  f=0.0005  <S**2>=0.000
      31 -> 34         0.66973
      31 -> 35        -0.15193

 Excited State   5:      Singlet-A      5.5712 eV  222.55 nm  f=0.0033  <S**2>=0.000
      31 -> 34         0.14798
      31 -> 35         0.65972
      31 -> 36         0.12994

 Excited State   6:      Singlet-A      5.9995 eV  206.66 nm  f=0.0044  <S**2>=0.000
      30 -> 33        -0.59569
      31 -> 36        -0.25313
      31 -> 37        -0.20517

 Optimization completed.
    -- Stationary point found.

                         Standard orientation:
 ---------------------------------------------------------------------
 Center     Atomic      Atomic             Coordinates (Angstroms)
 Number     Number       Type             X           Y           Z
 ---------------------------------------------------------------------
      1          6           0       -2.186798    0.641208   -0.000014
      2          6           0       -2.130892   -0.733329    0.000247
      3          6           0       -0.872450   -1.448998   -0.000105
      4          6           0        0.261126   -0.657600   -0.000011
      5          6           0        0.235688    0.751100   -0.000207
      6          6           0       -1.018231    1.436028   -0.000611
      7          7           0        1.601675   -1.033443    0.000270
      8          6           0        1.565847    1.184904    0.000127
      9          6           0        2.407492    0.036350    0.000306
     10          1           0        1.918829   -1.984452   -0.001005
     11          1           0        1.922198    2.198082    0.000416
     12          1           0        3.476010   -0.045993   -0.000021
     13          1           0       -3.044550   -1.305092    0.000741
     14          1           0       -0.839324   -2.524723    0.000504
     15          1           0       -3.149229    1.126942    0.000193
     16          1           0       -1.066351    2.511355   -0.001105
 ---------------------------------------------------------------------

 The electronic state is 1-A.
 Alpha  occ. eigenvalues --  -14.86507 -10.63787 -10.62954 -10.60439 -10.59824
 Alpha  occ. eigenvalues --  -10.59531 -10.59384 -10.58984 -10.58208  -1.12070
 Alpha  occ. eigenvalues --   -0.95803  -0.89309  -0.85264  -0.81473  -0.72435
 Alpha  occ. eigenvalues --   -0.68961  -0.66831  -0.62474  -0.56480  -0.55086
 Alpha  occ. eigenvalues --   -0.51360  -0.50639  -0.49576  -0.47597  -0.46419
 Alpha  occ. eigenvalues --   -0.41628  -0.41191  -0.39256  -0.32387  -0.27276
 Alpha  occ. eigenvalues --   -0.23083
 Alpha virt. eigenvalues --    0.01100   0.01824   0.03750   0.04290   0.05678
 Alpha virt. eigenvalues --    0.05869   0.06220   0.07663   0.08037   0.08552
 Alpha virt. eigenvalues --    0.08631   0.08873   0.10870   0.11435   0.12576

 Mulliken charges:
               1
     1  C   -0.005026
     2  C   -0.385842
     3  C   -0.365617
     4  C   -0.845089
     5  C    1.332923
     6  C   -0.807174
     7  N   -0.456351
     8  C    0.090645
     9  C   -0.283792
    10  H    0.456109
    11  H    0.233289
    12  H    0.237111
    13  H    0.196911
    14  H    0.201725
    15  H    0.193645
    16  H    0.206534
 Sum of Mulliken charges =  -0.00000

 Dipole moment (field-independent basis, Debye):
    X=              3.6941    Y=             -1.3593    Z=              0.0028  Tot=              3.9363
 Quadrupole moment (field-independent basis, Debye-Ang):
   XX=            -45.4342   YY=            -46.7307   ZZ=            -61.4563
   XY=             -2.2979   XZ=             -0.0010   YZ=             -0.0027

 Normal termination of Gaussian 16 at Wed Jun 23 13:58:22 2021.
