 Gaussian 16, Revision C.01,
 Gaussian 16:  AS64L-G16RevC.01  3-Jul-2019

 --------------------------------------------------------------
 # td= (nstates=6, root=2) HSEH1PBE/6-31+G* Opt density=current
 --------------------------------------------------------------

 -------------------
 FuncsHSEH1PBE-V-2nd
 -------------------
 Symbolic Z-matrix:
 Charge =  0 Multiplicity = 1

 SCF Done:  E(RHSEH1PBE) =  -363.433772147     A.U. after   14 cycles
 Total Energy, E(TD-HF/TD-DFT) =  -363.250123712
 SCF Done:  E(RHSEH1PBE) =  -363.430068607     A.U. after   13 cycles
 Total Energy, E(TD-HF/TD-DFT) =  -363.255119064
 SCF Done:  E(RHSEH1PBE) =  -363.429633481     A.U. after   11 cycles
 Total Energy, E(TD-HF/TD-DFT) =  -363.255106598
 SCF Done:  E(RHSEH1PBE) =  -363.429603122     A.U. after   12 cycles
 Total Energy, E(TD-HF/TD-DFT) =  -363.255252630
 SCF Done:  E(RHSEH1PBE) =  -363.429755834     A.U. after   10 cycles
 Total Energy, E(TD-HF/TD-DFT) =  -363.255296488
 SCF Done:  E(RHSEH1PBE) =  -363.429722030     A.U. after   10 cycles

 Excitation energies and oscillator strengths:

 Excited State   1:      Singlet-A      4.6912 eV  264.29 nm  f=0.0862  <S**2>=0.000
      30 -> 32        -0.16875
      30 -> 34         0.16018
      31 -> 32         0.65389

 Excited State   2:      Singlet-A      4.7463 eV  261.22 nm  f=0.0516  <S**2>=0.000
      30 -> 32         0.57293
      31 -> 32         0.14907
      31 -> 34        -0.37529
 This state for optimization and/or second-order correction.
 Total Energy, E(TD-HF/TD-DFT) =  -363.255299423
 Copying the excited state density for this state as the 1-particle RhoCI density.

 Excited State   3:      Singlet-A      5.0374 eV  246.13 nm  f=0.0027  <S**2>=0.000
      31 -> 33         0.70440

 Excited State   4:      Singlet-A      5.4066 eV  229.32 nm  f=0.0019  <S**2>=0.000
      30 -> 33         0.70052

 Excited State   5:      Singlet-A      5.6139 eV  220.85 nm  f=0.0000  <S**2>=0.000
      31 -> 35         0.69917

 Excited State   6:      Singlet-A      5.7319 eV  216.31 nm  f=0.0014  <S**2>=0.000
      31 -> 36        -0.69789

 Optimization completed.
    -- Stationary point found.

                         Standard orientation:
 ---------------------------------------------------------------------
 Center     Atomic      Atomic             Coordinates (Angstroms)
 Number     Number       Type             X           Y           Z
 ---------------------------------------------------------------------
      1          6           0       -2.160419    0.700203   -0.000001
      2          6           0       -2.142095   -0.730232    0.000047
      3          6           0       -0.935675   -1.456146    0.000034
      4          6           0        0.249962   -0.683997   -0.000022
      5          6           0        0.259045    0.775351   -0.000031
      6          6           0       -0.971245    1.472922   -0.000030
      7          7           0        1.556120   -1.084962   -0.000098
      8          6           0        1.617916    1.168259   -0.000007
      9          6           0        2.399919    0.020783    0.000050
     10          1           0        1.865790   -2.043876    0.000450
     11          1           0        1.997862    2.181237   -0.000045
     12          1           0        3.473527   -0.101176    0.000032
     13          1           0       -3.087248   -1.264548    0.000073
     14          1           0       -0.918737   -2.540989    0.000008
     15          1           0       -3.122338    1.204336   -0.000019
     16          1           0       -1.006136    2.556890   -0.000052
 ---------------------------------------------------------------------

 The electronic state is 1-A.
 Alpha  occ. eigenvalues --  -14.44072 -10.26232 -10.26206 -10.23212 -10.22760
 Alpha  occ. eigenvalues --  -10.22691 -10.22678 -10.22234 -10.21624  -0.99638
 Alpha  occ. eigenvalues --   -0.84046  -0.79294  -0.73827  -0.72243  -0.62955
 Alpha  occ. eigenvalues --   -0.60145  -0.58281  -0.54021  -0.48934  -0.46921
 Alpha  occ. eigenvalues --   -0.43557  -0.43222  -0.42198  -0.40672  -0.39236
 Alpha  occ. eigenvalues --   -0.35283  -0.33613  -0.32789  -0.27958  -0.21614
 Alpha  occ. eigenvalues --   -0.20265
 Alpha virt. eigenvalues --   -0.03169  -0.00578   0.00634   0.01378   0.01916
 Alpha virt. eigenvalues --    0.03423   0.03580   0.03778   0.05518   0.05728
 Alpha virt. eigenvalues --    0.06322   0.06347   0.08117   0.08520   0.10371

 Mulliken charges:
               1
     1  C   -0.022384
     2  C   -0.458276
     3  C   -0.299209
     4  C   -1.013131
     5  C    1.460118
     6  C   -0.768654
     7  N   -0.435099
     8  C    0.074531
     9  C   -0.274114
    10  H    0.441843
    11  H    0.223377
    12  H    0.227312
    13  H    0.209769
    14  H    0.210729
    15  H    0.209257
    16  H    0.213932
 Sum of Mulliken charges =  -0.00000

 Dipole moment (field-independent basis, Debye):
    X=              2.0799    Y=             -1.4293    Z=              0.0004  Tot=              2.5236
 Quadrupole moment (field-independent basis, Debye-Ang):
   XX=            -45.5299   YY=            -45.6888   ZZ=            -60.1850
   XY=             -3.0523   XZ=              0.0009   YZ=             -0.0015

 Normal termination of Gaussian 16 at Mon Jun 14 11:28:43 2021.
