 Gaussian 16, Revision C.01,
 Gaussian 16:  AS64L-G16RevC.01  3-Jul-2019

 --------------------------------------------------------------
 # td= (nstates=6, root=1) HSEH1PBE/6-31+G* Opt density=current
 --------------------------------------------------------------

 -------------------
 FuncsHSEH1PBE-V-1st
 -------------------
 Symbolic Z-matrix:
 Charge =  0 Multiplicity = 1

 SCF Done:  E(RHSEH1PBE) =  -363.433772147     A.U. after   14 cycles
 Total Energy, E(TD-HF/TD-DFT) =  -363.255423654
 SCF Done:  E(RHSEH1PBE) =  -363.426882571     A.U. after   13 cycles
 Total Energy, E(TD-HF/TD-DFT) =  -363.265385125
 SCF Done:  E(RHSEH1PBE) =  -363.423370096     A.U. after   13 cycles
 Total Energy, E(TD-HF/TD-DFT) =  -363.266540447
 SCF Done:  E(RHSEH1PBE) =  -363.422836967     A.U. after   11 cycles
 Total Energy, E(TD-HF/TD-DFT) =  -363.266647565
 SCF Done:  E(RHSEH1PBE) =  -363.422862351     A.U. after   10 cycles
 Total Energy, E(TD-HF/TD-DFT) =  -363.266669419
 SCF Done:  E(RHSEH1PBE) =  -363.422992981     A.U. after   10 cycles

 Excitation energies and oscillator strengths:

 Excited State   1:      Singlet-A      4.2537 eV  291.47 nm  f=0.1015  <S**2>=0.000
      29 -> 32         0.10679
      31 -> 32         0.68373
 This state for optimization and/or second-order correction.
 Total Energy, E(TD-HF/TD-DFT) =  -363.266671844
 Copying the excited state density for this state as the 1-particle RhoCI density.

 Excited State   2:      Singlet-A      4.7209 eV  262.63 nm  f=0.0023  <S**2>=0.000
      31 -> 33         0.70456

 Excited State   3:      Singlet-A      4.8607 eV  255.07 nm  f=0.0075  <S**2>=0.000
      30 -> 32         0.54217
      31 -> 34        -0.43726

 Excited State   4:      Singlet-A      5.3130 eV  233.36 nm  f=0.0000  <S**2>=0.000
      31 -> 35         0.70176

 Excited State   5:      Singlet-A      5.4559 eV  227.25 nm  f=0.0032  <S**2>=0.000
      31 -> 36        -0.69806

 Excited State   6:      Singlet-A      5.7728 eV  214.77 nm  f=0.0020  <S**2>=0.000
      30 -> 33         0.69183
      31 -> 37        -0.12248

 Optimization completed.
    -- Stationary point found.

                         Standard orientation:
 ---------------------------------------------------------------------
 Center     Atomic      Atomic             Coordinates (Angstroms)
 Number     Number       Type             X           Y           Z
 ---------------------------------------------------------------------
      1          6           0       -2.190111    0.648695   -0.000041
      2          6           0       -2.136440   -0.733014    0.000013
      3          6           0       -0.892232   -1.461789    0.000055
      4          6           0        0.251891   -0.648225    0.000036
      5          6           0        0.226540    0.749047   -0.000024
      6          6           0       -1.012904    1.452257   -0.000060
      7          7           0        1.605572   -1.034297    0.000038
      8          6           0        1.585411    1.181040   -0.000065
      9          6           0        2.423758    0.024429    0.000043
     10          1           0        1.914448   -1.996896    0.000154
     11          1           0        1.948359    2.200999   -0.000131
     12          1           0        3.499831   -0.067035    0.000074
     13          1           0       -3.064338   -1.299389    0.000023
     14          1           0       -0.857016   -2.545145    0.000022
     15          1           0       -3.161031    1.137163   -0.000071
     16          1           0       -1.054726    2.535738   -0.000078
 ---------------------------------------------------------------------

 The electronic state is 1-A.
 Alpha  occ. eigenvalues --  -14.43937 -10.26330 -10.25945 -10.23615 -10.22921
 Alpha  occ. eigenvalues --  -10.22561 -10.22458 -10.22152 -10.21365  -0.99999
 Alpha  occ. eigenvalues --   -0.84846  -0.78453  -0.74867  -0.71587  -0.63423
 Alpha  occ. eigenvalues --   -0.59950  -0.58109  -0.54400  -0.48509  -0.47367
 Alpha  occ. eigenvalues --   -0.43850  -0.43300  -0.42405  -0.40195  -0.39155
 Alpha  occ. eigenvalues --   -0.34915  -0.34248  -0.33383  -0.27036  -0.23003
 Alpha  occ. eigenvalues --   -0.19191
 Alpha virt. eigenvalues --   -0.03696  -0.00639   0.01130   0.01311   0.01998
 Alpha virt. eigenvalues --    0.03425   0.03571   0.03600   0.05456   0.05715
 Alpha virt. eigenvalues --    0.06316   0.06370   0.08187   0.08405   0.10268

 Mulliken charges:
               1
     1  C   -0.023735
     2  C   -0.382518
     3  C   -0.486193
     4  C   -1.199300
     5  C    1.735307
     6  C   -0.791536
     7  N   -0.363103
     8  C   -0.002869
     9  C   -0.228336
    10  H    0.455247
    11  H    0.243662
    12  H    0.241994
    13  H    0.197919
    14  H    0.202101
    15  H    0.195905
    16  H    0.205457
 Sum of Mulliken charges =  -0.00000

 Dipole moment (field-independent basis, Debye):
    X=              4.8094    Y=             -1.1852    Z=             -0.0000  Tot=              4.9533
 Quadrupole moment (field-independent basis, Debye-Ang):
   XX=            -43.7247   YY=            -46.5284   ZZ=            -60.6176
   XY=             -2.2105   XZ=              0.0003   YZ=             -0.0003

 Normal termination of Gaussian 16 at Mon Jun 14 11:30:37 2021.
