 Gaussian 16, Revision C.01,
 Gaussian 16:  AS64L-G16RevC.01  3-Jul-2019

 ----------------------------------------------------------
 # td= (nstates=6, root=1) LSDA/6-31+G* Opt density=current
 ----------------------------------------------------------

 ---------------
 FuncsLSDA-V-1st
 ---------------
 Symbolic Z-matrix:
 Charge =  0 Multiplicity = 1

 SCF Done:  E(RS-VWN) =  -361.774289017     A.U. after   15 cycles
 Total Energy, E(TD-HF/TD-DFT) =  -361.610640504
 SCF Done:  E(RS-VWN) =  -361.768128947     A.U. after   13 cycles
 Total Energy, E(TD-HF/TD-DFT) =  -361.621609590
 SCF Done:  E(RS-VWN) =  -361.764493620     A.U. after   13 cycles
 Total Energy, E(TD-HF/TD-DFT) =  -361.622870902
 SCF Done:  E(RS-VWN) =  -361.763526843     A.U. after   12 cycles
 Total Energy, E(TD-HF/TD-DFT) =  -361.623014258
 SCF Done:  E(RS-VWN) =  -361.763495432     A.U. after   11 cycles
 Total Energy, E(TD-HF/TD-DFT) =  -361.623035279
 SCF Done:  E(RS-VWN) =  -361.763602553     A.U. after   10 cycles

 Excitation energies and oscillator strengths:

 Excited State   1:      Singlet-A      3.8250 eV  324.14 nm  f=0.0470  <S**2>=0.000
      29 -> 32         0.15860
      31 -> 32         0.67088
 This state for optimization and/or second-order correction.
 Total Energy, E(TD-HF/TD-DFT) =  -361.623037732
 Copying the excited state density for this state as the 1-particle RhoCI density.

 Excited State   2:      Singlet-A      4.5219 eV  274.19 nm  f=0.0011  <S**2>=0.000
      31 -> 34         0.70682

 Excited State   3:      Singlet-A      4.5939 eV  269.89 nm  f=0.0040  <S**2>=0.000
      30 -> 32         0.51935
      31 -> 33        -0.46276

 Excited State   4:      Singlet-A      5.0749 eV  244.31 nm  f=0.0001  <S**2>=0.000
      31 -> 35        -0.70681

 Excited State   5:      Singlet-A      5.3381 eV  232.26 nm  f=0.0025  <S**2>=0.000
      31 -> 37         0.70668

 Excited State   6:      Singlet-A      5.4767 eV  226.38 nm  f=0.1754  <S**2>=0.000
      29 -> 32         0.38249
      29 -> 36        -0.12519
      30 -> 32        -0.20660
      30 -> 33        -0.12437
      30 -> 36        -0.11846
      31 -> 32        -0.14377
      31 -> 33        -0.30911
      31 -> 36         0.37463

 Optimization completed.
    -- Stationary point found.

                         Standard orientation:
 ---------------------------------------------------------------------
 Center     Atomic      Atomic             Coordinates (Angstroms)
 Number     Number       Type             X           Y           Z
 ---------------------------------------------------------------------
      1          6           0       -2.179937    0.652684   -0.000038
      2          6           0       -2.127618   -0.730852   -0.000046
      3          6           0       -0.904089   -1.466465    0.000036
      4          6           0        0.242739   -0.638510    0.000028
      5          6           0        0.216716    0.742844   -0.000027
      6          6           0       -1.007503    1.459512    0.000033
      7          7           0        1.602509   -1.031529    0.000101
      8          6           0        1.593970    1.172656   -0.000131
      9          6           0        2.424418    0.018305    0.000010
     10          1           0        1.904700   -2.008232    0.000283
     11          1           0        1.957891    2.202708   -0.000242
     12          1           0        3.509651   -0.077881    0.000057
     13          1           0       -3.070365   -1.291826   -0.000063
     14          1           0       -0.867142   -2.558041    0.000052
     15          1           0       -3.161312    1.141408   -0.000071
     16          1           0       -1.043159    2.551518    0.000080
 ---------------------------------------------------------------------

 The electronic state is 1-A.
 Alpha  occ. eigenvalues --  -13.95018  -9.85172  -9.85065  -9.82863  -9.82091
 Alpha  occ. eigenvalues --   -9.81708  -9.81641  -9.81398  -9.80668  -0.92164
 Alpha  occ. eigenvalues --   -0.78169  -0.71990  -0.68752  -0.65891  -0.58843
 Alpha  occ. eigenvalues --   -0.55440  -0.53935  -0.50952  -0.45069  -0.44279
 Alpha  occ. eigenvalues --   -0.41407  -0.40753  -0.40322  -0.37614  -0.36739
 Alpha  occ. eigenvalues --   -0.33006  -0.32399  -0.32047  -0.26592  -0.23325
 Alpha  occ. eigenvalues --   -0.19757
 Alpha virt. eigenvalues --   -0.07685  -0.03197  -0.03153  -0.01087  -0.00779
 Alpha virt. eigenvalues --   -0.00069   0.01245   0.01559   0.02751   0.03528
 Alpha virt. eigenvalues --    0.03988   0.04288   0.05748   0.06229   0.07669

 Mulliken charges:
               1
     1  C   -0.034077
     2  C   -0.363293
     3  C   -0.386737
     4  C   -1.360971
     5  C    1.593400
     6  C   -0.638397
     7  N   -0.352209
     8  C    0.095197
     9  C   -0.224658
    10  H    0.441439
    11  H    0.240207
    12  H    0.239582
    13  H    0.185968
    14  H    0.188907
    15  H    0.184573
    16  H    0.191067
 Sum of Mulliken charges =  -0.00000

 Dipole moment (field-independent basis, Debye):
    X=              5.4209    Y=             -1.0734    Z=              0.0001  Tot=              5.5262
 Quadrupole moment (field-independent basis, Debye-Ang):
   XX=            -43.1325   YY=            -46.6793   ZZ=            -60.1341
   XY=             -2.1427   XZ=              0.0006   YZ=             -0.0011

 Normal termination of Gaussian 16 at Wed Jun 23 07:56:33 2021.
