 Gaussian 16, Revision C.01,
 Gaussian 16:  AS64L-G16RevC.01  3-Jul-2019

 -----------------------------------------------------------
 # td= (nstates=6, root=3) N12SX/6-31+G* Opt density=current
 -----------------------------------------------------------

 ----------------
 FuncsN12SX-V-3rd
 ----------------
 Symbolic Z-matrix:
 Charge =  0 Multiplicity = 1

 SCF Done:  E(RN12SX) =  -363.666126635     A.U. after   15 cycles
 Total Energy, E(TD-HF/TD-DFT) =  -363.483430666
 SCF Done:  E(RN12SX) =  -363.662314677     A.U. after   13 cycles
 Total Energy, E(TD-HF/TD-DFT) =  -363.487527464
 SCF Done:  E(RN12SX) =  -363.661854880     A.U. after   11 cycles
 Total Energy, E(TD-HF/TD-DFT) =  -363.487567057
 SCF Done:  E(RN12SX) =  -363.661395407     A.U. after   12 cycles
 Total Energy, E(TD-HF/TD-DFT) =  -363.487623376
 SCF Done:  E(RN12SX) =  -363.662063857     A.U. after   11 cycles
 Total Energy, E(TD-HF/TD-DFT) =  -363.487679504
 SCF Done:  E(RN12SX) =  -363.661957393     A.U. after   10 cycles

 Excitation energies and oscillator strengths:

 Excited State   1:      Singlet-A      4.6837 eV  264.71 nm  f=0.0879  <S**2>=0.000
      30 -> 32        -0.16538
      30 -> 35         0.16623
      31 -> 32         0.65420

 Excited State   2:      Singlet-A      4.8366 eV  256.35 nm  f=0.0019  <S**2>=0.000
      31 -> 33         0.70505

 Excited State   3:      Singlet-A      4.7422 eV  261.45 nm  f=0.0504  <S**2>=0.000
      30 -> 32         0.57364
      31 -> 32         0.14481
      31 -> 35        -0.37565
 This state for optimization and/or second-order correction.
 Total Energy, E(TD-HF/TD-DFT) =  -363.487683062
 Copying the excited state density for this state as the 1-particle RhoCI density.

 Excited State   4:      Singlet-A      5.2184 eV  237.59 nm  f=0.0015  <S**2>=0.000
      30 -> 33         0.70209

 Excited State   5:      Singlet-A      5.4174 eV  228.86 nm  f=0.0000  <S**2>=0.000
      31 -> 34         0.70233

 Excited State   6:      Singlet-A      5.5257 eV  224.38 nm  f=0.0007  <S**2>=0.000
      31 -> 36         0.70249

 Optimization completed.
    -- Stationary point found.

                         Standard orientation:
 ---------------------------------------------------------------------
 Center     Atomic      Atomic             Coordinates (Angstroms)
 Number     Number       Type             X           Y           Z
 ---------------------------------------------------------------------
      1          6           0       -2.156769    0.698675    0.000023
      2          6           0       -2.138989   -0.728391    0.000038
      3          6           0       -0.934207   -1.451744    0.000019
      4          6           0        0.249636   -0.682695   -0.000018
      5          6           0        0.258535    0.773313   -0.000015
      6          6           0       -0.968978    1.468819   -0.000012
      7          7           0        1.553852   -1.084233   -0.000120
      8          6           0        1.614763    1.165971   -0.000044
      9          6           0        2.395817    0.021548    0.000072
     10          1           0        1.862039   -2.038988    0.000492
     11          1           0        1.991369    2.175390   -0.000122
     12          1           0        3.465220   -0.097034    0.000083
     13          1           0       -3.079738   -1.260885    0.000042
     14          1           0       -0.917343   -2.531946   -0.000015
     15          1           0       -3.113824    1.201946    0.000022
     16          1           0       -1.003542    2.548168   -0.000034
 ---------------------------------------------------------------------

 The electronic state is 1-A.
 Alpha  occ. eigenvalues --  -14.44037 -10.27726 -10.27681 -10.24628 -10.24202
 Alpha  occ. eigenvalues --  -10.24145 -10.24119 -10.23673 -10.23083  -0.98221
 Alpha  occ. eigenvalues --   -0.83197  -0.78457  -0.73031  -0.71465  -0.62448
 Alpha  occ. eigenvalues --   -0.59605  -0.57784  -0.53711  -0.48564  -0.46677
 Alpha  occ. eigenvalues --   -0.43321  -0.43024  -0.41895  -0.40480  -0.39053
 Alpha  occ. eigenvalues --   -0.35112  -0.33417  -0.32506  -0.27701  -0.21367
 Alpha  occ. eigenvalues --   -0.20021
 Alpha virt. eigenvalues --   -0.02911  -0.01221   0.00720   0.00858   0.01203
 Alpha virt. eigenvalues --    0.02632   0.02758   0.03830   0.05105   0.05397
 Alpha virt. eigenvalues --    0.05477   0.05861   0.07847   0.08297   0.09491

 Mulliken charges:
               1
     1  C    0.009542
     2  C   -0.470616
     3  C   -0.287022
     4  C   -1.104290
     5  C    1.569069
     6  C   -0.796856
     7  N   -0.414053
     8  C    0.130192
     9  C   -0.292903
    10  H    0.423849
    11  H    0.214038
    12  H    0.218555
    13  H    0.199443
    14  H    0.198912
    15  H    0.199307
    16  H    0.202832
 Sum of Mulliken charges =  -0.00000

 Dipole moment (field-independent basis, Debye):
    X=              2.0287    Y=             -1.4113    Z=              0.0001  Tot=              2.4713
 Quadrupole moment (field-independent basis, Debye-Ang):
   XX=            -45.3215   YY=            -45.4420   ZZ=            -59.6350
   XY=             -3.0507   XZ=              0.0006   YZ=             -0.0010

 Normal termination of Gaussian 16 at Wed Jun 16 07:49:44 2021.
