 Gaussian 16, Revision C.01,
 Gaussian 16:  AS64L-G16RevC.01  3-Jul-2019

 ---------------------------------------------------------------
 # td= (nstates=6, root=3) LC-PBEPBE/6-31+G* Opt density=current
 ---------------------------------------------------------------

 --------------------
 FuncsLC-PBEPBE-V-3rd
 --------------------
 Symbolic Z-matrix:
 Charge =  0 Multiplicity = 1

 SCF Done:  E(RLC-PBE+HF-PBE) =  -362.555223269     A.U. after   16 cycles
 Total Energy, E(TD-HF/TD-DFT) =  -362.324048573
 SCF Done:  E(RLC-PBE+HF-PBE) =  -362.550480759     A.U. after   16 cycles
 Total Energy, E(TD-HF/TD-DFT) =  -362.332837733
 SCF Done:  E(RLC-PBE+HF-PBE) =  -362.547377040     A.U. after   16 cycles
 Total Energy, E(TD-HF/TD-DFT) =  -362.333653513
 SCF Done:  E(RLC-PBE+HF-PBE) =  -362.546945893     A.U. after   13 cycles
 Total Energy, E(TD-HF/TD-DFT) =  -362.333737862
 SCF Done:  E(RLC-PBE+HF-PBE) =  -362.546856439     A.U. after   13 cycles
 Total Energy, E(TD-HF/TD-DFT) =  -362.333756818
 SCF Done:  E(RLC-PBE+HF-PBE) =  -362.546948645     A.U. after   11 cycles

 Excitation energies and oscillator strengths:

 Excited State   1:      Singlet-A      5.0991 eV  243.15 nm  f=0.2010  <S**2>=0.000
      30 -> 38         0.15346
      31 -> 33         0.66520

 Excited State   2:      Singlet-A      5.3943 eV  229.84 nm  f=0.0105  <S**2>=0.000
      30 -> 33         0.50688
      31 -> 33        -0.11218
      31 -> 38        -0.42454

 Excited State   3:      Singlet-A      5.8012 eV  213.72 nm  f=0.0044  <S**2>=0.000
      29 -> 32         0.10428
      31 -> 32         0.66384
      31 -> 40         0.11484
 This state for optimization and/or second-order correction.
 Total Energy, E(TD-HF/TD-DFT) =  -362.333760078
 Copying the excited state density for this state as the 1-particle RhoCI density.

 Excited State   4:      Singlet-A      6.5344 eV  189.74 nm  f=0.0049  <S**2>=0.000
      31 -> 34         0.54818
      31 -> 35        -0.34454
      31 -> 36        -0.11382
      31 -> 37        -0.11367

 Excited State   5:      Singlet-A      6.5747 eV  188.58 nm  f=0.5925  <S**2>=0.000
      30 -> 33         0.41617
      31 -> 38         0.49562
      31 -> 39         0.19242

 Excited State   6:      Singlet-A      6.6048 eV  187.72 nm  f=0.0058  <S**2>=0.000
      31 -> 34         0.33960
      31 -> 35         0.47676
      31 -> 36         0.17477
      31 -> 40        -0.14867
      31 -> 43         0.22984

 Optimization completed.
    -- Stationary point found.

                         Standard orientation:
 ---------------------------------------------------------------------
 Center     Atomic      Atomic             Coordinates (Angstroms)
 Number     Number       Type             X           Y           Z
 ---------------------------------------------------------------------
      1          6           0       -2.161553    0.638222   -0.000128
      2          6           0       -2.081463   -0.748246   -0.000013
      3          6           0       -0.862640   -1.425968    0.000063
      4          6           0        0.261620   -0.655405    0.000090
      5          6           0        0.214114    0.749236    0.000004
      6          6           0       -1.019055    1.404174   -0.000213
      7          7           0        1.602154   -1.019049    0.000162
      8          6           0        1.540948    1.193789    0.000249
      9          6           0        2.356044    0.042275   -0.000216
     10          1           0        1.976474   -1.993756    0.000200
     11          1           0        1.904055    2.215581    0.000253
     12          1           0        3.439113   -0.044289   -0.000394
     13          1           0       -2.998644   -1.329917    0.000014
     14          1           0       -0.817661   -2.508105    0.000151
     15          1           0       -3.135652    1.116796   -0.000154
     16          1           0       -1.070857    2.488572   -0.000222
 ---------------------------------------------------------------------

 The electronic state is 1-A.
 Alpha  occ. eigenvalues --  -14.29301 -10.17129 -10.16410 -10.13789 -10.13053
 Alpha  occ. eigenvalues --  -10.13025 -10.12942 -10.12663 -10.11706  -1.18130
 Alpha  occ. eigenvalues --   -1.03214  -0.95824  -0.91946  -0.88170  -0.79204
 Alpha  occ. eigenvalues --   -0.75289  -0.74115  -0.69726  -0.62622  -0.61882
 Alpha  occ. eigenvalues --   -0.59050  -0.58472  -0.57395  -0.53918  -0.52319
 Alpha  occ. eigenvalues --   -0.48598  -0.48344  -0.46436  -0.40626  -0.34376
 Alpha  occ. eigenvalues --   -0.29991
 Alpha virt. eigenvalues --    0.05183   0.05804   0.07235   0.07843   0.08955
 Alpha virt. eigenvalues --    0.09436   0.10196   0.11579   0.11643   0.11806
 Alpha virt. eigenvalues --    0.12440   0.12623   0.14684   0.15524   0.15736

 Mulliken charges:
               1
     1  C   -0.255808
     2  C   -0.610335
     3  C   -0.621456
     4  C   -0.553245
     5  C    1.395678
     6  C   -0.131971
     7  N    0.885548
     8  C   -4.889070
     9  C    2.721921
    10  H    0.400387
    11  H    0.289267
    12  H    0.315313
    13  H    0.254942
    14  H    0.290823
    15  H    0.246252
    16  H    0.261754
 Sum of Mulliken charges =  -0.00000

 Dipole moment (field-independent basis, Debye):
    X=             -6.1829    Y=              5.1319    Z=             -0.0003  Tot=              8.0352
 Quadrupole moment (field-independent basis, Debye-Ang):
   XX=            -65.0971   YY=            -60.2525   ZZ=            -66.5902
   XY=             14.0380   XZ=              0.0021   YZ=             -0.0014

 Normal termination of Gaussian 16 at Wed Jun 23 08:44:17 2021.
