 Gaussian 16, Revision C.01,
 Gaussian 16:  AS64L-G16RevC.01  3-Jul-2019

 ---------------------------------------------------------------
 # td= (nstates=6, root=2) LC-PBEPBE/6-31+G* Opt density=current
 ---------------------------------------------------------------

 --------------------
 FuncsLC-PBEPBE-V-2nd
 --------------------
 Symbolic Z-matrix:
 Charge =  0 Multiplicity = 1

 SCF Done:  E(RLC-PBE+HF-PBE) =  -362.555223269     A.U. after   16 cycles
 Total Energy, E(TD-HF/TD-DFT) =  -362.355330227
 SCF Done:  E(RLC-PBE+HF-PBE) =  -362.547702016     A.U. after   15 cycles
 Total Energy, E(TD-HF/TD-DFT) =  -362.364895994
 SCF Done:  E(RLC-PBE+HF-PBE) =  -362.543638671     A.U. after   15 cycles
 Total Energy, E(TD-HF/TD-DFT) =  -362.365796663
 SCF Done:  E(RLC-PBE+HF-PBE) =  -362.543155828     A.U. after   12 cycles
 Total Energy, E(TD-HF/TD-DFT) =  -362.365827681
 SCF Done:  E(RLC-PBE+HF-PBE) =  -362.543168475     A.U. after   11 cycles

 Excitation energies and oscillator strengths:

 Excited State   1:      Singlet-A      5.2092 eV  238.01 nm  f=0.0131  <S**2>=0.000
      30 -> 32         0.54806
      31 -> 38        -0.38949

 Excited State   2:      Singlet-A      4.8256 eV  256.93 nm  f=0.2272  <S**2>=0.000
      30 -> 38         0.13368
      31 -> 32         0.68173
 This state for optimization and/or second-order correction.
 Total Energy, E(TD-HF/TD-DFT) =  -362.365829334
 Copying the excited state density for this state as the 1-particle RhoCI density.

 Excited State   3:      Singlet-A      5.8607 eV  211.55 nm  f=0.0054  <S**2>=0.000
      31 -> 33         0.65799
      31 -> 40        -0.12619

 Excited State   4:      Singlet-A      6.4588 eV  191.96 nm  f=0.5838  <S**2>=0.000
      30 -> 32         0.37485
      31 -> 38         0.53611
      31 -> 39         0.16547

 Excited State   5:      Singlet-A      6.5009 eV  190.72 nm  f=0.0025  <S**2>=0.000
      31 -> 34         0.60270
      31 -> 35        -0.25551

 Excited State   6:      Singlet-A      6.5698 eV  188.72 nm  f=0.0028  <S**2>=0.000
      31 -> 33         0.11863
      31 -> 34         0.24692
      31 -> 35         0.56070
      31 -> 36         0.14068
      31 -> 43         0.19511

 Optimization completed.
    -- Stationary point found.

                         Standard orientation:
 ---------------------------------------------------------------------
 Center     Atomic      Atomic             Coordinates (Angstroms)
 Number     Number       Type             X           Y           Z
 ---------------------------------------------------------------------
      1          6           0       -2.177514    0.634755   -0.000018
      2          6           0       -2.120876   -0.732526    0.000010
      3          6           0       -0.860404   -1.442006    0.000019
      4          6           0        0.261736   -0.658247    0.000035
      5          6           0        0.237301    0.752922   -0.000025
      6          6           0       -1.018132    1.428274   -0.000032
      7          7           0        1.595885   -1.029934    0.000021
      8          6           0        1.553446    1.182797   -0.000108
      9          6           0        2.393480    0.040279    0.000077
     10          1           0        1.915937   -1.988851    0.000234
     11          1           0        1.909523    2.205504   -0.000205
     12          1           0        3.471625   -0.040186    0.000122
     13          1           0       -3.039412   -1.312275    0.000017
     14          1           0       -0.825491   -2.526353   -0.000002
     15          1           0       -3.148513    1.122169   -0.000036
     16          1           0       -1.069080    2.512049   -0.000023
 ---------------------------------------------------------------------

 The electronic state is 1-A.
 Alpha  occ. eigenvalues --  -14.28959 -10.17687 -10.16752 -10.14432 -10.13803
 Alpha  occ. eigenvalues --  -10.13563 -10.13371 -10.12933 -10.12026  -1.17560
 Alpha  occ. eigenvalues --   -1.02418  -0.95968  -0.91756  -0.87939  -0.79276
 Alpha  occ. eigenvalues --   -0.75698  -0.73738  -0.69447  -0.62997  -0.61819
 Alpha  occ. eigenvalues --   -0.58610  -0.58218  -0.57248  -0.53997  -0.52844
 Alpha  occ. eigenvalues --   -0.47959  -0.47818  -0.47056  -0.40529  -0.34453
 Alpha  occ. eigenvalues --   -0.29796
 Alpha virt. eigenvalues --    0.04699   0.05384   0.07230   0.07801   0.08913
 Alpha virt. eigenvalues --    0.09383   0.10222   0.11547   0.11606   0.11771
 Alpha virt. eigenvalues --    0.12347   0.12706   0.14739   0.15422   0.15710

 Mulliken charges:
               1
     1  C   -0.004932
     2  C   -0.467772
     3  C   -0.261247
     4  C   -1.167993
     5  C    1.454814
     6  C   -0.797355
     7  N   -0.377956
     8  C    0.081541
     9  C   -0.297620
    10  H    0.457388
    11  H    0.251166
    12  H    0.254013
    13  H    0.217269
    14  H    0.220180
    15  H    0.214400
    16  H    0.224102
 Sum of Mulliken charges =  -0.00000

 Dipole moment (field-independent basis, Debye):
    X=              3.6771    Y=             -1.6626    Z=              0.0001  Tot=              4.0355
 Quadrupole moment (field-independent basis, Debye-Ang):
   XX=            -44.0333   YY=            -45.1926   ZZ=            -60.1040
   XY=             -2.6343   XZ=              0.0006   YZ=             -0.0010

 Normal termination of Gaussian 16 at Wed Jun 23 08:37:57 2021.
