 Gaussian 16, Revision C.01,
 Gaussian 16:  AS64L-G16RevC.01  3-Jul-2019

 -------------------------------------------------------------
 # td= (nstates=6, root=1) LC-BLYP/6-31+G* Opt density=current
 -------------------------------------------------------------

 ------------------
 FuncsLC-BLYP-V-1st
 ------------------
 Symbolic Z-matrix:
 Charge =  0 Multiplicity = 1

 SCF Done:  E(RLC-B+HF-LYP) =  -362.735201154     A.U. after   16 cycles
 Total Energy, E(TD-HF/TD-DFT) =  -362.543154631
 SCF Done:  E(RLC-B+HF-LYP) =  -362.730619155     A.U. after   15 cycles
 Total Energy, E(TD-HF/TD-DFT) =  -362.546950203
 SCF Done:  E(RLC-B+HF-LYP) =  -362.729253831     A.U. after   15 cycles
 Total Energy, E(TD-HF/TD-DFT) =  -362.547336612
 SCF Done:  E(RLC-B+HF-LYP) =  -362.728991867     A.U. after   14 cycles
 Total Energy, E(TD-HF/TD-DFT) =  -362.547388065
 SCF Done:  E(RLC-B+HF-LYP) =  -362.729065787     A.U. after   12 cycles

 Excitation energies and oscillator strengths:

 Excited State   1:      Singlet-A      4.9435 eV  250.80 nm  f=0.0743  <S**2>=0.000
      30 -> 33        -0.48512
      30 -> 38         0.15302
      31 -> 33         0.38606
      31 -> 38         0.21391
      31 -> 42        -0.11432
 This state for optimization and/or second-order correction.
 Total Energy, E(TD-HF/TD-DFT) =  -362.547394868
 Copying the excited state density for this state as the 1-particle RhoCI density.

 Excited State   2:      Singlet-A      5.2822 eV  234.72 nm  f=0.1105  <S**2>=0.000
      30 -> 33        -0.35111
      30 -> 38        -0.18041
      31 -> 33        -0.51613
      31 -> 38         0.21956

 Excited State   3:      Singlet-A      5.8321 eV  212.59 nm  f=0.0018  <S**2>=0.000
      31 -> 32        -0.64266
      31 -> 34         0.11135
      31 -> 40        -0.12513

 Excited State   4:      Singlet-A      6.1926 eV  200.21 nm  f=0.0085  <S**2>=0.000
      30 -> 32        -0.61915
      30 -> 40        -0.14307
      31 -> 34        -0.19039

 Excited State   5:      Singlet-A      6.5153 eV  190.30 nm  f=0.0002  <S**2>=0.000
      30 -> 34        -0.11731
      30 -> 36         0.10393
      31 -> 34         0.18462
      31 -> 35         0.58846
      31 -> 43         0.16674

 Excited State   6:      Singlet-A      6.5531 eV  189.20 nm  f=0.8673  <S**2>=0.000
      30 -> 33        -0.32530
      31 -> 38        -0.59126

 Optimization completed.
    -- Stationary point found.

                         Standard orientation:
 ---------------------------------------------------------------------
 Center     Atomic      Atomic             Coordinates (Angstroms)
 Number     Number       Type             X           Y           Z
 ---------------------------------------------------------------------
      1          6           0       -2.132560    0.708321    0.000027
      2          6           0       -2.155928   -0.696019    0.000032
      3          6           0       -0.957316   -1.432638   -0.000002
      4          6           0        0.233860   -0.678022   -0.000027
      5          6           0        0.272581    0.767003   -0.000044
      6          6           0       -0.934845    1.467809   -0.000027
      7          7           0        1.507987   -1.091066   -0.000020
      8          6           0        1.652614    1.135928   -0.000138
      9          6           0        2.396012    0.001588    0.000170
     10          1           0        1.794413   -2.059954    0.000236
     11          1           0        2.040497    2.145176   -0.000265
     12          1           0        3.463183   -0.156522    0.000230
     13          1           0       -3.109747   -1.209709    0.000044
     14          1           0       -0.944645   -2.516114   -0.000034
     15          1           0       -3.078799    1.240297    0.000039
     16          1           0       -0.967309    2.550469   -0.000049
 ---------------------------------------------------------------------

 The electronic state is 1-A.
 Alpha  occ. eigenvalues --  -14.30535 -10.19852 -10.19609 -10.16536 -10.16313
 Alpha  occ. eigenvalues --  -10.16211 -10.15895 -10.15332 -10.15095  -1.15689
 Alpha  occ. eigenvalues --   -1.00748  -0.95627  -0.89351  -0.88456  -0.78229
 Alpha  occ. eigenvalues --   -0.74471  -0.73252  -0.68478  -0.62942  -0.61014
 Alpha  occ. eigenvalues --   -0.57313  -0.57003  -0.56559  -0.54741  -0.52646
 Alpha  occ. eigenvalues --   -0.47949  -0.46557  -0.46332  -0.40560  -0.31949
 Alpha  occ. eigenvalues --   -0.30918
 Alpha virt. eigenvalues --    0.04605   0.05469   0.06372   0.06763   0.08078
 Alpha virt. eigenvalues --    0.08404   0.09989   0.10567   0.10683   0.10937
 Alpha virt. eigenvalues --    0.11619   0.11651   0.13602   0.14792   0.14813

 Mulliken charges:
               1
     1  C    0.063880
     2  C   -0.453423
     3  C   -0.242444
     4  C   -0.658678
     5  C    1.071800
     6  C   -0.753782
     7  N   -0.510161
     8  C    0.187324
     9  C   -0.337064
    10  H    0.430532
    11  H    0.210751
    12  H    0.213402
    13  H    0.190124
    14  H    0.193821
    15  H    0.195083
    16  H    0.198834
 Sum of Mulliken charges =  -0.00000

 Dipole moment (field-independent basis, Debye):
    X=              1.7928    Y=             -1.1878    Z=              0.0001  Tot=              2.1506
 Quadrupole moment (field-independent basis, Debye-Ang):
   XX=            -46.6442   YY=            -45.8910   ZZ=            -60.1814
   XY=             -4.0209   XZ=              0.0005   YZ=             -0.0011

 Normal termination of Gaussian 16 at Wed Jun 16 08:01:21 2021.
