 Gaussian 16, Revision C.01,
 Gaussian 16:  AS64L-G16RevC.01  3-Jul-2019

 ---------------------------------------------------------------
 # td= (nstates=6, root=1) BHandHLYP/6-31+G* Opt density=current
 ---------------------------------------------------------------

 --------------------
 FuncsBHandHLYP-V-1st
 --------------------
 Symbolic Z-matrix:
 Charge =  0 Multiplicity = 1

 SCF Done:  E(RBHandHLYP) =  -363.604797963     A.U. after   15 cycles
 Total Energy, E(TD-HF/TD-DFT) =  -363.415663468
 SCF Done:  E(RBHandHLYP) =  -363.597686147     A.U. after   13 cycles
 Total Energy, E(TD-HF/TD-DFT) =  -363.424491633
 SCF Done:  E(RBHandHLYP) =  -363.593444695     A.U. after   13 cycles
 Total Energy, E(TD-HF/TD-DFT) =  -363.425563117
 SCF Done:  E(RBHandHLYP) =  -363.593357312     A.U. after   11 cycles
 Total Energy, E(TD-HF/TD-DFT) =  -363.425626328
 SCF Done:  E(RBHandHLYP) =  -363.593441277     A.U. after   10 cycles

 Excitation energies and oscillator strengths:

 Excited State   1:      Singlet-A      4.5662 eV  271.53 nm  f=0.1880  <S**2>=0.000
      30 -> 38         0.12314
      31 -> 32         0.68843
 This state for optimization and/or second-order correction.
 Total Energy, E(TD-HF/TD-DFT) =  -363.425636179
 Copying the excited state density for this state as the 1-particle RhoCI density.

 Excited State   2:      Singlet-A      4.8672 eV  254.73 nm  f=0.0042  <S**2>=0.000
      31 -> 33         0.69410

 Excited State   3:      Singlet-A      5.0901 eV  243.58 nm  f=0.0113  <S**2>=0.000
      30 -> 32         0.55083
      31 -> 38        -0.40861

 Excited State   4:      Singlet-A      5.5053 eV  225.21 nm  f=0.0005  <S**2>=0.000
      31 -> 34         0.66979
      31 -> 35        -0.15134

 Excited State   5:      Singlet-A      5.5703 eV  222.58 nm  f=0.0033  <S**2>=0.000
      31 -> 34         0.14740
      31 -> 35         0.65991
      31 -> 36         0.12990

 Excited State   6:      Singlet-A      5.9990 eV  206.67 nm  f=0.0043  <S**2>=0.000
      30 -> 33         0.59541
      31 -> 36         0.25349
      31 -> 37         0.20534

 Optimization completed.
    -- Stationary point found.

                         Standard orientation:
 ---------------------------------------------------------------------
 Center     Atomic      Atomic             Coordinates (Angstroms)
 Number     Number       Type             X           Y           Z
 ---------------------------------------------------------------------
      1          6           0       -2.187084    0.641262   -0.000026
      2          6           0       -2.131852   -0.732782    0.000009
      3          6           0       -0.872639   -1.448880    0.000060
      4          6           0        0.261012   -0.657822    0.000020
      5          6           0        0.235846    0.751227   -0.000037
      6          6           0       -1.017529    1.435960   -0.000020
      7          7           0        1.601316   -1.033620    0.000001
      8          6           0        1.566479    1.184943   -0.000078
      9          6           0        2.407960    0.035936    0.000052
     10          1           0        1.918472   -1.984714    0.000296
     11          1           0        1.922869    2.198028   -0.000156
     12          1           0        3.476401   -0.047095    0.000054
     13          1           0       -3.045132   -1.305219    0.000002
     14          1           0       -0.840034   -2.524558   -0.000003
     15          1           0       -3.148790    1.128549   -0.000056
     16          1           0       -1.066161    2.511287   -0.000020
 ---------------------------------------------------------------------

 The electronic state is 1-A.
 Alpha  occ. eigenvalues --  -14.86506 -10.63799 -10.62961 -10.60441 -10.59824
 Alpha  occ. eigenvalues --  -10.59538 -10.59391 -10.58986 -10.58219  -1.12064
 Alpha  occ. eigenvalues --   -0.95796  -0.89302  -0.85261  -0.81469  -0.72440
 Alpha  occ. eigenvalues --   -0.68956  -0.66832  -0.62469  -0.56485  -0.55081
 Alpha  occ. eigenvalues --   -0.51351  -0.50639  -0.49573  -0.47605  -0.46424
 Alpha  occ. eigenvalues --   -0.41618  -0.41193  -0.39251  -0.32386  -0.27275
 Alpha  occ. eigenvalues --   -0.23081
 Alpha virt. eigenvalues --    0.01091   0.01823   0.03750   0.04290   0.05678
 Alpha virt. eigenvalues --    0.05868   0.06219   0.07660   0.08036   0.08552
 Alpha virt. eigenvalues --    0.08629   0.08874   0.10872   0.11435   0.12575

 Mulliken charges:
               1
     1  C   -0.004538
     2  C   -0.385862
     3  C   -0.363995
     4  C   -0.846231
     5  C    1.332231
     6  C   -0.807458
     7  N   -0.456200
     8  C    0.090916
     9  C   -0.284132
    10  H    0.456101
    11  H    0.233271
    12  H    0.237096
    13  H    0.196921
    14  H    0.201691
    15  H    0.193661
    16  H    0.206527
 Sum of Mulliken charges =  -0.00000

 Dipole moment (field-independent basis, Debye):
    X=              3.6891    Y=             -1.3573    Z=             -0.0006  Tot=              3.9309
 Quadrupole moment (field-independent basis, Debye-Ang):
   XX=            -45.4403   YY=            -46.7170   ZZ=            -61.4558
   XY=             -2.3041   XZ=             -0.0005   YZ=             -0.0002

 Normal termination of Gaussian 16 at Wed Jun 23 11:38:12 2021.
