 Gaussian 16, Revision C.01,
 Gaussian 16:  AS64L-G16RevC.01  3-Jul-2019

 -----------------------------------------------------------
 # td= (nstates=6, root=2) M062X/6-31+G* Opt density=current
 -----------------------------------------------------------

 ----------------
 FuncsM062X-V-2nd
 ----------------
 Symbolic Z-matrix:
 Charge =  0 Multiplicity = 1

 SCF Done:  E(RM062X) =  -363.671654518     A.U. after   15 cycles
 Total Energy, E(TD-HF/TD-DFT) =  -363.481615228
 SCF Done:  E(RM062X) =  -363.665513688     A.U. after   13 cycles
 Total Energy, E(TD-HF/TD-DFT) =  -363.491253480
 SCF Done:  E(RM062X) =  -363.657508490     A.U. after   13 cycles
 Total Energy, E(TD-HF/TD-DFT) =  -363.493935198
 SCF Done:  E(RM062X) =  -363.658782284     A.U. after   13 cycles
 Total Energy, E(TD-HF/TD-DFT) =  -363.494446540
 SCF Done:  E(RM062X) =  -363.659525235     A.U. after   12 cycles
 Total Energy, E(TD-HF/TD-DFT) =  -363.494594043
 SCF Done:  E(RM062X) =  -363.659813834     A.U. after   10 cycles
 Total Energy, E(TD-HF/TD-DFT) =  -363.494603600
 SCF Done:  E(RM062X) =  -363.659872058     A.U. after   10 cycles

 Excitation energies and oscillator strengths:

 Excited State   1:      Singlet-A      4.7550 eV  260.74 nm  f=0.0021  <S**2>=0.000
      31 -> 33         0.69425

 Excited State   2:      Singlet-A      4.4971 eV  275.70 nm  f=0.1547  <S**2>=0.000
      31 -> 32         0.69111
 This state for optimization and/or second-order correction.
 Total Energy, E(TD-HF/TD-DFT) =  -363.494605550
 Copying the excited state density for this state as the 1-particle RhoCI density.

 Excited State   3:      Singlet-A      5.0027 eV  247.84 nm  f=0.0089  <S**2>=0.000
      30 -> 32         0.54482
      31 -> 38        -0.41338

 Excited State   4:      Singlet-A      5.4391 eV  227.95 nm  f=0.0010  <S**2>=0.000
      31 -> 34         0.66861
      31 -> 35        -0.15670

 Excited State   5:      Singlet-A      5.5005 eV  225.41 nm  f=0.0022  <S**2>=0.000
      31 -> 34         0.15127
      31 -> 35         0.65612
      31 -> 36         0.15051

 Excited State   6:      Singlet-A      5.9323 eV  209.00 nm  f=0.0014  <S**2>=0.000
      30 -> 33         0.52612
      31 -> 36         0.33417
      31 -> 37         0.25362

 Optimization completed.
    -- Stationary point found.

                         Standard orientation:
 ---------------------------------------------------------------------
 Center     Atomic      Atomic             Coordinates (Angstroms)
 Number     Number       Type             X           Y           Z
 ---------------------------------------------------------------------
      1          6           0       -2.193097    0.643045   -0.000142
      2          6           0       -2.137734   -0.736416   -0.000056
      3          6           0       -0.879659   -1.459417    0.000295
      4          6           0        0.255057   -0.653557   -0.000042
      5          6           0        0.231605    0.754580   -0.000051
      6          6           0       -1.019395    1.447321    0.000091
      7          7           0        1.608581   -1.034979    0.000045
      8          6           0        1.574956    1.188317    0.000092
      9          6           0        2.420764    0.030134   -0.000207
     10          1           0        1.921423   -1.997816    0.000561
     11          1           0        1.935862    2.208372    0.000029
     12          1           0        3.496497   -0.058614   -0.000450
     13          1           0       -3.060294   -1.308814   -0.000202
     14          1           0       -0.840065   -2.542029    0.000042
     15          1           0       -3.163769    1.129883   -0.000288
     16          1           0       -1.064694    2.529831    0.000103
 ---------------------------------------------------------------------

 The electronic state is 1-A.
 Alpha  occ. eigenvalues --  -14.81475 -10.59296 -10.58630 -10.56213 -10.55544
 Alpha  occ. eigenvalues --  -10.55214 -10.55026 -10.54707 -10.53912  -1.09844
 Alpha  occ. eigenvalues --   -0.94063  -0.87488  -0.83721  -0.80014  -0.71372
 Alpha  occ. eigenvalues --   -0.67928  -0.65803  -0.61801  -0.55676  -0.54463
 Alpha  occ. eigenvalues --   -0.50592  -0.49973  -0.49941  -0.46842  -0.45540
 Alpha  occ. eigenvalues --   -0.40862  -0.40527  -0.40136  -0.33245  -0.28470
 Alpha  occ. eigenvalues --   -0.24142
 Alpha virt. eigenvalues --    0.00102   0.00593   0.02567   0.03096   0.04271
 Alpha virt. eigenvalues --    0.04564   0.05148   0.06595   0.06663   0.06960
 Alpha virt. eigenvalues --    0.07323   0.07597   0.09833   0.10221   0.10841

 Mulliken charges:
               1
     1  C   -0.050720
     2  C   -0.389174
     3  C   -0.276936
     4  C   -1.035563
     5  C    1.234106
     6  C   -0.608647
     7  N   -0.435396
     8  C    0.107218
     9  C   -0.282594
    10  H    0.461243
    11  H    0.242545
    12  H    0.244287
    13  H    0.195999
    14  H    0.198554
    15  H    0.194205
    16  H    0.200874
 Sum of Mulliken charges =  -0.00000

 Dipole moment (field-independent basis, Debye):
    X=              4.4277    Y=             -1.4098    Z=             -0.0016  Tot=              4.6468
 Quadrupole moment (field-independent basis, Debye-Ang):
   XX=            -44.5094   YY=            -46.7544   ZZ=            -61.3047
   XY=             -2.3270   XZ=             -0.0004   YZ=              0.0005

 Normal termination of Gaussian 16 at Thu Jun 17 14:13:15 2021.
