 Gaussian 16, Revision C.01,
 Gaussian 16:  AS64L-G16RevC.01  3-Jul-2019

 -------------------------------------------------------------
 # td= (nstates=6, root=1) PBE1PBE/6-31+G* Opt density=current
 -------------------------------------------------------------

 ------------------
 FuncsPBE1PBE-V-1st
 ------------------
 Symbolic Z-matrix:
 Charge =  0 Multiplicity = 1

 SCF Done:  E(RPBE1PBE) =  -363.403722658     A.U. after   14 cycles
 Total Energy, E(TD-HF/TD-DFT) =  -363.224304109
 SCF Done:  E(RPBE1PBE) =  -363.396913832     A.U. after   13 cycles
 Total Energy, E(TD-HF/TD-DFT) =  -363.234203893
 SCF Done:  E(RPBE1PBE) =  -363.393292520     A.U. after   13 cycles
 Total Energy, E(TD-HF/TD-DFT) =  -363.235388879
 SCF Done:  E(RPBE1PBE) =  -363.392810286     A.U. after   11 cycles
 Total Energy, E(TD-HF/TD-DFT) =  -363.235500212
 SCF Done:  E(RPBE1PBE) =  -363.392848114     A.U. after   10 cycles
 Total Energy, E(TD-HF/TD-DFT) =  -363.235523547
 SCF Done:  E(RPBE1PBE) =  -363.392988565     A.U. after   10 cycles

 Excitation energies and oscillator strengths:

 Excited State   1:      Singlet-A      4.2848 eV  289.36 nm  f=0.1059  <S**2>=0.000
      29 -> 32         0.10297
      31 -> 32         0.68457
 This state for optimization and/or second-order correction.
 Total Energy, E(TD-HF/TD-DFT) =  -363.235526036
 Copying the excited state density for this state as the 1-particle RhoCI density.

 Excited State   2:      Singlet-A      4.7568 eV  260.65 nm  f=0.0023  <S**2>=0.000
      31 -> 33         0.70313

 Excited State   3:      Singlet-A      4.8782 eV  254.16 nm  f=0.0082  <S**2>=0.000
      30 -> 32         0.54484
      31 -> 35        -0.43302

 Excited State   4:      Singlet-A      5.3740 eV  230.71 nm  f=0.0000  <S**2>=0.000
      31 -> 34         0.69750

 Excited State   5:      Singlet-A      5.4925 eV  225.73 nm  f=0.0033  <S**2>=0.000
      31 -> 36        -0.69303

 Excited State   6:      Singlet-A      5.8232 eV  212.91 nm  f=0.0018  <S**2>=0.000
      30 -> 33         0.68848
      31 -> 37         0.12157

 Optimization completed.
    -- Stationary point found.

                         Standard orientation:
 ---------------------------------------------------------------------
 Center     Atomic      Atomic             Coordinates (Angstroms)
 Number     Number       Type             X           Y           Z
 ---------------------------------------------------------------------
      1          6           0       -2.190125    0.648205   -0.000045
      2          6           0       -2.136326   -0.733141    0.000010
      3          6           0       -0.890801   -1.461454    0.000054
      4          6           0        0.252316   -0.648758    0.000037
      5          6           0        0.227110    0.749631   -0.000021
      6          6           0       -1.013033    1.451861   -0.000060
      7          7           0        1.605028   -1.034239    0.000044
      8          6           0        1.584424    1.181266   -0.000057
      9          6           0        2.423083    0.024876    0.000034
     10          1           0        1.914160   -1.996890    0.000162
     11          1           0        1.947452    2.201473   -0.000125
     12          1           0        3.499386   -0.066806    0.000053
     13          1           0       -3.063924   -1.300304    0.000018
     14          1           0       -0.855594   -2.545054    0.000025
     15          1           0       -3.161192    1.136786   -0.000077
     16          1           0       -1.055367    2.535549   -0.000076
 ---------------------------------------------------------------------

 The electronic state is 1-A.
 Alpha  occ. eigenvalues --  -14.45441 -10.27808 -10.27408 -10.25078 -10.24389
 Alpha  occ. eigenvalues --  -10.24032 -10.23933 -10.23615 -10.22825  -1.01693
 Alpha  occ. eigenvalues --   -0.86490  -0.80110  -0.76500  -0.73199  -0.65022
 Alpha  occ. eigenvalues --   -0.61541  -0.59691  -0.55956  -0.50058  -0.48900
 Alpha  occ. eigenvalues --   -0.45367  -0.44802  -0.43991  -0.41689  -0.40649
 Alpha  occ. eigenvalues --   -0.36362  -0.35726  -0.34930  -0.28560  -0.24444
 Alpha  occ. eigenvalues --   -0.20601
 Alpha virt. eigenvalues --   -0.02360   0.00477   0.02422   0.02507   0.03076
 Alpha virt. eigenvalues --    0.04495   0.04654   0.04915   0.06635   0.06858
 Alpha virt. eigenvalues --    0.07386   0.07445   0.09336   0.09554   0.11364

 Mulliken charges:
               1
     1  C   -0.024190
     2  C   -0.396003
     3  C   -0.489040
     4  C   -1.254760
     5  C    1.799130
     6  C   -0.808014
     7  N   -0.356595
     8  C   -0.010798
     9  C   -0.229358
    10  H    0.458312
    11  H    0.247190
    12  H    0.245263
    13  H    0.202330
    14  H    0.206380
    15  H    0.200299
    16  H    0.209853
 Sum of Mulliken charges =  -0.00000

 Dipole moment (field-independent basis, Debye):
    X=              4.7623    Y=             -1.2120    Z=             -0.0000  Tot=              4.9141
 Quadrupole moment (field-independent basis, Debye-Ang):
   XX=            -43.7221   YY=            -46.4230   ZZ=            -60.6371
   XY=             -2.2312   XZ=              0.0003   YZ=             -0.0004

 Normal termination of Gaussian 16 at Wed Jun 23 08:41:58 2021.
