 Gaussian 16, Revision C.01,
 Gaussian 16:  AS64L-G16RevC.01  3-Jul-2019

 -------------------------------------------------------------
 # td= (nstates=6, root=2) PBE1PBE/6-31+G* Opt density=current
 -------------------------------------------------------------

 ------------------
 FuncsPBE1PBE-V-2nd
 ------------------
 Symbolic Z-matrix:
 Charge =  0 Multiplicity = 1

 SCF Done:  E(RPBE1PBE) =  -363.403722658     A.U. after   14 cycles
 Total Energy, E(TD-HF/TD-DFT) =  -363.219426873
 SCF Done:  E(RPBE1PBE) =  -363.399976874     A.U. after   12 cycles
 Total Energy, E(TD-HF/TD-DFT) =  -363.224417890
 SCF Done:  E(RPBE1PBE) =  -363.399409166     A.U. after   12 cycles
 Total Energy, E(TD-HF/TD-DFT) =  -363.224161779
 SCF Done:  E(RPBE1PBE) =  -363.399732905     A.U. after   11 cycles
 Total Energy, E(TD-HF/TD-DFT) =  -363.224564390
 SCF Done:  E(RPBE1PBE) =  -363.399707396     A.U. after   11 cycles
 Total Energy, E(TD-HF/TD-DFT) =  -363.224611538
 SCF Done:  E(RPBE1PBE) =  -363.399668275     A.U. after   10 cycles
 Total Energy, E(TD-HF/TD-DFT) =  -363.224618820
 SCF Done:  E(RPBE1PBE) =  -363.399617703     A.U. after   10 cycles

 Excitation energies and oscillator strengths:

 Excited State   1:      Singlet-A      4.7197 eV  262.69 nm  f=0.0871  <S**2>=0.000
      30 -> 32        -0.18385
      30 -> 34         0.16146
      31 -> 32         0.65005

 Excited State   2:      Singlet-A      4.7619 eV  260.37 nm  f=0.0550  <S**2>=0.000
      30 -> 32         0.57078
      31 -> 32         0.16632
      31 -> 34        -0.36948
 This state for optimization and/or second-order correction.
 Total Energy, E(TD-HF/TD-DFT) =  -363.224620045
 Copying the excited state density for this state as the 1-particle RhoCI density.

 Excited State   3:      Singlet-A      5.0765 eV  244.23 nm  f=0.0027  <S**2>=0.000
      31 -> 33         0.70290

 Excited State   4:      Singlet-A      5.4531 eV  227.37 nm  f=0.0018  <S**2>=0.000
      30 -> 33         0.69718

 Excited State   5:      Singlet-A      5.6739 eV  218.52 nm  f=0.0000  <S**2>=0.000
      31 -> 35         0.69470

 Excited State   6:      Singlet-A      5.7727 eV  214.78 nm  f=0.0015  <S**2>=0.000
      31 -> 36         0.69336

 Optimization completed.
    -- Stationary point found.

                         Standard orientation:
 ---------------------------------------------------------------------
 Center     Atomic      Atomic             Coordinates (Angstroms)
 Number     Number       Type             X           Y           Z
 ---------------------------------------------------------------------
      1          6           0       -2.159693    0.699934   -0.000011
      2          6           0       -2.140684   -0.730431    0.000040
      3          6           0       -0.934948   -1.457720    0.000041
      4          6           0        0.250419   -0.684099   -0.000013
      5          6           0        0.258686    0.775507   -0.000032
      6          6           0       -0.972361    1.473667   -0.000041
      7          7           0        1.556019   -1.084393   -0.000074
      8          6           0        1.617251    1.168394    0.000002
      9          6           0        2.398940    0.021349    0.000035
     10          1           0        1.866101   -2.043259    0.000414
     11          1           0        1.997598    2.181451   -0.000026
     12          1           0        3.472867   -0.100532    0.000009
     13          1           0       -3.086425   -1.264243    0.000063
     14          1           0       -0.917835   -2.542632    0.000022
     15          1           0       -3.122632    1.202628   -0.000027
     16          1           0       -1.007462    2.557729   -0.000066
 ---------------------------------------------------------------------

 The electronic state is 1-A.
 Alpha  occ. eigenvalues --  -14.45568 -10.27707 -10.27659 -10.24696 -10.24238
 Alpha  occ. eigenvalues --  -10.24171 -10.24149 -10.23694 -10.23077  -1.01337
 Alpha  occ. eigenvalues --   -0.85692  -0.80936  -0.75462  -0.73857  -0.64550
 Alpha  occ. eigenvalues --   -0.61717  -0.59861  -0.55590  -0.50477  -0.48454
 Alpha  occ. eigenvalues --   -0.45071  -0.44744  -0.43780  -0.42165  -0.40700
 Alpha  occ. eigenvalues --   -0.36740  -0.35091  -0.34345  -0.29470  -0.23043
 Alpha  occ. eigenvalues --   -0.21686
 Alpha virt. eigenvalues --   -0.01833   0.00538   0.02022   0.02483   0.02997
 Alpha virt. eigenvalues --    0.04502   0.04625   0.05111   0.06701   0.06872
 Alpha virt. eigenvalues --    0.07377   0.07434   0.09265   0.09673   0.11462

 Mulliken charges:
               1
     1  C   -0.022565
     2  C   -0.465876
     3  C   -0.312508
     4  C   -1.059584
     5  C    1.520514
     6  C   -0.788026
     7  N   -0.429598
     8  C    0.065060
     9  C   -0.271255
    10  H    0.445239
    11  H    0.227595
    12  H    0.230832
    13  H    0.213938
    14  H    0.215008
    15  H    0.213186
    16  H    0.218040
 Sum of Mulliken charges =  -0.00000

 Dipole moment (field-independent basis, Debye):
    X=              2.1014    Y=             -1.4452    Z=              0.0003  Tot=              2.5504
 Quadrupole moment (field-independent basis, Debye-Ang):
   XX=            -45.3862   YY=            -45.6758   ZZ=            -60.1932
   XY=             -3.0374   XZ=              0.0009   YZ=             -0.0014

 Normal termination of Gaussian 16 at Wed Jun 23 08:45:40 2021.
