 Gaussian 16, Revision C.01,
 Gaussian 16:  ES64L-G16RevC.01  3-Jul-2019

 ------------------------------------------------------------
 # td= (nstates=6, root=2) LSDA/6-31+G(d) Opt density=current
 ------------------------------------------------------------

 ------------
 FuncsLSDA2nd
 ------------
 Symbolic Z-matrix:
 Charge =  0 Multiplicity = 1

 SCF Done:  E(RS-VWN) =  -361.774587779     A.U. after   15 cycles
 Total Energy, E(TD-HF/TD-DFT) =  -361.602861133
 SCF Done:  E(RS-VWN) =  -361.772027915     A.U. after   13 cycles
 Total Energy, E(TD-HF/TD-DFT) =  -361.606264200
 SCF Done:  E(RS-VWN) =  -361.771580346     A.U. after   11 cycles
 Total Energy, E(TD-HF/TD-DFT) =  -361.606396608
 SCF Done:  E(RS-VWN) =  -361.771547468     A.U. after   11 cycles
 Total Energy, E(TD-HF/TD-DFT) =  -361.606413956
 SCF Done:  E(RS-VWN) =  -361.771611030     A.U. after   10 cycles

 Excitation energies and oscillator strengths:

 Excited State   1:      Singlet-A      4.3195 eV  287.04 nm  f=0.0582  <S**2>=0.000
      29 -> 32         0.13200
      30 -> 33         0.11620
      31 -> 32         0.66265

 Excited State   2:      Singlet-A      4.4952 eV  275.82 nm  f=0.0212  <S**2>=0.000
      30 -> 32         0.55804
      31 -> 33        -0.42859
 This state for optimization and/or second-order correction.
 Total Energy, E(TD-HF/TD-DFT) =  -361.606416586
 Copying the excited state density for this state as the 1-particle RhoCI density.

 Excited State   3:      Singlet-A      4.7774 eV  259.52 nm  f=0.0014  <S**2>=0.000
      31 -> 34         0.70673

 Excited State   4:      Singlet-A      5.1717 eV  239.73 nm  f=0.0016  <S**2>=0.000
      30 -> 34         0.70667

 Excited State   5:      Singlet-A      5.3502 eV  231.74 nm  f=0.0000  <S**2>=0.000
      31 -> 35         0.70665

 Excited State   6:      Singlet-A      5.5552 eV  223.19 nm  f=0.0015  <S**2>=0.000
      31 -> 37         0.70660

 Optimization completed.
    -- Stationary point found.

                         Standard orientation:
 ---------------------------------------------------------------------
 Center     Atomic      Atomic             Coordinates (Angstroms)
 Number     Number       Type             X           Y           Z
 ---------------------------------------------------------------------
      1          6           0       -2.160387    0.699939   -0.000018
      2          6           0       -2.144309   -0.730993    0.000099
      3          6           0       -0.936401   -1.444643    0.000064
      4          6           0        0.246104   -0.679288   -0.000037
      5          6           0        0.259613    0.773004   -0.000012
      6          6           0       -0.962520    1.466029   -0.000067
      7          7           0        1.554881   -1.083982   -0.000193
      8          6           0        1.614470    1.166765    0.000074
      9          6           0        2.401142    0.015349    0.000023
     10          1           0        1.863174   -2.054713    0.000545
     11          1           0        1.994493    2.189816    0.000098
     12          1           0        3.483797   -0.106915   -0.000046
     13          1           0       -3.095132   -1.273398    0.000154
     14          1           0       -0.916707   -2.539598    0.000005
     15          1           0       -3.126405    1.215682   -0.000082
     16          1           0       -0.993656    2.560026   -0.000080
 ---------------------------------------------------------------------

 The electronic state is 1-A.
 Alpha  occ. eigenvalues --  -13.95339  -9.85302  -9.85239  -9.82353  -9.81818
 Alpha  occ. eigenvalues --   -9.81802  -9.81778  -9.81492  -9.80937  -0.91976
 Alpha  occ. eigenvalues --   -0.77350  -0.72897  -0.67836  -0.66352  -0.58525
 Alpha  occ. eigenvalues --   -0.55814  -0.54155  -0.50537  -0.45626  -0.43849
 Alpha  occ. eigenvalues --   -0.41179  -0.40326  -0.40243  -0.38192  -0.36983
 Alpha  occ. eigenvalues --   -0.33189  -0.31772  -0.31552  -0.27504  -0.22150
 Alpha  occ. eigenvalues --   -0.20651
 Alpha virt. eigenvalues --   -0.07170  -0.03772  -0.03112  -0.00966  -0.00538
 Alpha virt. eigenvalues --   -0.00175   0.01205   0.01561   0.02799   0.03531
 Alpha virt. eigenvalues --    0.04030   0.04273   0.05645   0.06329   0.07782

 Mulliken charges:
               1
     1  C   -0.010440
     2  C   -0.481926
     3  C   -0.101982
     4  C   -1.204025
     5  C    1.248848
     6  C   -0.625610
     7  N   -0.408699
     8  C    0.246453
     9  C   -0.331830
    10  H    0.424517
    11  H    0.217027
    12  H    0.222420
    13  H    0.199870
    14  H    0.200471
    15  H    0.200026
    16  H    0.204881
 Sum of Mulliken charges =  -0.00000

 Dipole moment (field-independent basis, Debye):
    X=              2.0951    Y=             -1.3802    Z=              0.0006  Tot=              2.5088
 Quadrupole moment (field-independent basis, Debye-Ang):
   XX=            -45.8688   YY=            -45.2316   ZZ=            -59.9564
   XY=             -3.1536   XZ=              0.0015   YZ=             -0.0017

 Normal termination of Gaussian 16 at Fri Jun 12 07:05:13 2020.
