 Gaussian 16, Revision C.01,
 Gaussian 16:  AS64L-G16RevC.01  3-Jul-2019

 ---------------------------------------------------------
 # td= (nstates=6, root=2) CIS/6-31+G* Opt density=current
 ---------------------------------------------------------

 --------------
 FuncsCIS-V-2nd
 --------------
 Symbolic Z-matrix:
 Charge =  0 Multiplicity = 1

 SCF Done:  E(RHF) =  -361.478205206     A.U. after   17 cycles
 SCF Done:  E(RHF) =  -361.469975866     A.U. after   15 cycles
 SCF Done:  E(RHF) =  -361.467670891     A.U. after   15 cycles
 SCF Done:  E(RHF) =  -361.467585147     A.U. after   12 cycles
 SCF Done:  E(RHF) =  -361.467542880     A.U. after   11 cycles
 SCF Done:  E(RHF) =  -361.467570584     A.U. after   11 cycles

 Excitation energies and oscillator strengths:

 Excited State   1:      Singlet-A      5.2135 eV  237.82 nm  f=0.3274  <S**2>=0.000
      30 -> 42        -0.11793
      30 -> 43         0.12433
      31 -> 36         0.61675
      31 -> 42         0.12167
      31 -> 43         0.10651

 Excited State   2:      Singlet-A      5.1038 eV  242.92 nm  f=0.0102  <S**2>=0.000
      31 -> 32         0.65955
 This state for optimization and/or second-order correction.
 Total Energy, E(CIS/TDA) =  -361.280008594
 Copying the excited state density for this state as the 1-particle RhoCI density.

 Excited State   3:      Singlet-A      5.7200 eV  216.75 nm  f=0.0040  <S**2>=0.000
      31 -> 33         0.58320
      31 -> 34        -0.29605
      31 -> 35        -0.11193

 Excited State   4:      Singlet-A      5.7240 eV  216.61 nm  f=0.0018  <S**2>=0.000
      30 -> 36         0.42089
      30 -> 40        -0.11327
      30 -> 42         0.15329
      30 -> 43         0.10275
      31 -> 42         0.31500
      31 -> 43        -0.26756
      31 -> 44         0.16159
      31 -> 54         0.13209

 Excited State   5:      Singlet-A      5.8428 eV  212.20 nm  f=0.0038  <S**2>=0.000
      31 -> 32         0.11450
      31 -> 33         0.30953
      31 -> 34         0.53304
      31 -> 35         0.15039
      31 -> 39         0.10046
      31 -> 41        -0.17377

 Excited State   6:      Singlet-A      6.3337 eV  195.75 nm  f=0.0082  <S**2>=0.000
      29 -> 33         0.11583
      31 -> 33        -0.11353
      31 -> 37        -0.54272
      31 -> 39         0.26501
      31 -> 41        -0.22209

 Optimization completed.
    -- Stationary point found.

                         Standard orientation:
 ---------------------------------------------------------------------
 Center     Atomic      Atomic             Coordinates (Angstroms)
 Number     Number       Type             X           Y           Z
 ---------------------------------------------------------------------
      1          6           0       -2.172495    0.642915   -0.000127
      2          6           0       -2.083589   -0.757294    0.000008
      3          6           0       -0.859542   -1.437203    0.000181
      4          6           0        0.270029   -0.664551    0.000085
      5          6           0        0.218681    0.752431   -0.000056
      6          6           0       -1.033343    1.409759   -0.000120
      7          7           0        1.613641   -1.023176    0.000045
      8          6           0        1.535660    1.205891    0.000180
      9          6           0        2.364077    0.044744   -0.000204
     10          1           0        1.975168   -1.963280    0.000169
     11          1           0        1.898084    2.213098    0.000284
     12          1           0        3.430824   -0.017030   -0.000271
     13          1           0       -2.989423   -1.334329    0.000001
     14          1           0       -0.822623   -2.507233    0.000196
     15          1           0       -3.139853    1.108725   -0.000197
     16          1           0       -1.084531    2.482138   -0.000173
 ---------------------------------------------------------------------

 The electronic state is 1-A.
 Alpha  occ. eigenvalues --  -15.62237 -11.27777 -11.26543 -11.23672 -11.22974
 Alpha  occ. eigenvalues --  -11.22875 -11.22832 -11.22499 -11.21444  -1.32197
 Alpha  occ. eigenvalues --   -1.13949  -1.05770  -1.01412  -0.96766  -0.85214
 Alpha  occ. eigenvalues --   -0.81581  -0.79527  -0.73958  -0.66856  -0.65441
 Alpha  occ. eigenvalues --   -0.61555  -0.60483  -0.59408  -0.56719  -0.54927
 Alpha  occ. eigenvalues --   -0.51006  -0.48842  -0.46997  -0.38209  -0.31366
 Alpha  occ. eigenvalues --   -0.26385
 Alpha virt. eigenvalues --    0.05735   0.07630   0.08244   0.09256   0.09415
 Alpha virt. eigenvalues --    0.09842   0.12103   0.12136   0.13033   0.13384
 Alpha virt. eigenvalues --    0.13445   0.14309   0.15830   0.16085   0.16363

 Mulliken charges:
               1
     1  C   -0.519753
     2  C   -0.539089
     3  C   -2.181386
     4  C   -0.137369
     5  C    2.334451
     6  C    0.349342
     7  N    0.855725
     8  C   -5.986970
     9  C    3.578637
    10  H    0.481511
    11  H    0.310981
    12  H    0.344802
    13  H    0.268038
    14  H    0.304953
    15  H    0.257893
    16  H    0.278234
 Sum of Mulliken charges =  -0.00000

 Dipole moment (field-independent basis, Debye):
    X=             -6.7398    Y=              4.5333    Z=              0.0026  Tot=              8.1226
 Quadrupole moment (field-independent basis, Debye-Ang):
   XX=            -69.2985   YY=            -61.2453   ZZ=            -70.0846
   XY=             12.7281   XZ=              0.0094   YZ=             -0.0032

 Normal termination of Gaussian 16 at Wed Jun 23 07:32:36 2021.
