 Gaussian 16, Revision C.01,
 Gaussian 16:  AS64L-G16RevC.01  3-Jul-2019

 ---------------------------------------------------------------
 # td= (nstates=6, root=1) LC-PBEPBE/6-31+G* Opt density=current
 ---------------------------------------------------------------

 --------------------
 FuncsLC-PBEPBE-V-1st
 --------------------
 Symbolic Z-matrix:
 Charge =  0 Multiplicity = 1

 SCF Done:  E(RLC-PBE+HF-PBE) =  -362.555223269     A.U. after   16 cycles
 Total Energy, E(TD-HF/TD-DFT) =  -362.361186498
 SCF Done:  E(RLC-PBE+HF-PBE) =  -362.551282095     A.U. after   16 cycles
 Total Energy, E(TD-HF/TD-DFT) =  -362.364821738
 SCF Done:  E(RLC-PBE+HF-PBE) =  -362.549935268     A.U. after   15 cycles
 Total Energy, E(TD-HF/TD-DFT) =  -362.365182350
 SCF Done:  E(RLC-PBE+HF-PBE) =  -362.549722590     A.U. after   13 cycles
 Total Energy, E(TD-HF/TD-DFT) =  -362.365222148
 SCF Done:  E(RLC-PBE+HF-PBE) =  -362.549774858     A.U. after   12 cycles

 Excitation energies and oscillator strengths:

 Excited State   1:      Singlet-A      5.0218 eV  246.89 nm  f=0.0733  <S**2>=0.000
      30 -> 32        -0.49494
      30 -> 38         0.14228
      31 -> 32         0.38316
      31 -> 38         0.23405
 This state for optimization and/or second-order correction.
 Total Energy, E(TD-HF/TD-DFT) =  -362.365227709
 Copying the excited state density for this state as the 1-particle RhoCI density.

 Excited State   2:      Singlet-A      5.3674 eV  231.00 nm  f=0.1129  <S**2>=0.000
      30 -> 32        -0.34642
      30 -> 38        -0.18554
      31 -> 32        -0.52804
      31 -> 38         0.21491

 Excited State   3:      Singlet-A      6.2839 eV  197.30 nm  f=0.0018  <S**2>=0.000
      31 -> 33        -0.63845
      31 -> 34         0.10791
      31 -> 40        -0.12775

 Excited State   4:      Singlet-A      6.6534 eV  186.35 nm  f=0.0085  <S**2>=0.000
      30 -> 33        -0.60538
      30 -> 40        -0.13933
      31 -> 34        -0.21757

 Excited State   5:      Singlet-A      6.6706 eV  185.87 nm  f=0.8980  <S**2>=0.000
      30 -> 32        -0.32618
      31 -> 38        -0.59929

 Excited State   6:      Singlet-A      6.8594 eV  180.75 nm  f=0.2463  <S**2>=0.000
      30 -> 38        -0.61906
      31 -> 32         0.23723
      31 -> 39        -0.16165

 Optimization completed.
    -- Stationary point found.

                         Standard orientation:
 ---------------------------------------------------------------------
 Center     Atomic      Atomic             Coordinates (Angstroms)
 Number     Number       Type             X           Y           Z
 ---------------------------------------------------------------------
      1          6           0       -2.126628    0.706438    0.000032
      2          6           0       -2.150793   -0.694596    0.000035
      3          6           0       -0.954572   -1.430046   -0.000008
      4          6           0        0.232563   -0.675579   -0.000030
      5          6           0        0.272529    0.765492   -0.000044
      6          6           0       -0.932340    1.465645   -0.000027
      7          7           0        1.503352   -1.086220   -0.000021
      8          6           0        1.649646    1.133129   -0.000153
      9          6           0        2.389274   -0.001764    0.000188
     10          1           0        1.788508   -2.055112    0.000212
     11          1           0        2.039873    2.142614   -0.000291
     12          1           0        3.457663   -0.161424    0.000265
     13          1           0       -3.106040   -1.208407    0.000048
     14          1           0       -0.942076   -2.514790   -0.000040
     15          1           0       -3.074311    1.238786    0.000046
     16          1           0       -0.965153    2.549557   -0.000049
 ---------------------------------------------------------------------

 The electronic state is 1-A.
 Alpha  occ. eigenvalues --  -14.28473 -10.17324 -10.17112 -10.14134 -10.13874
 Alpha  occ. eigenvalues --  -10.13773 -10.13511 -10.12905 -10.12579  -1.17019
 Alpha  occ. eigenvalues --   -1.01786  -0.96542  -0.90224  -0.89243  -0.79015
 Alpha  occ. eigenvalues --   -0.75134  -0.73972  -0.69157  -0.63444  -0.61472
 Alpha  occ. eigenvalues --   -0.58285  -0.57440  -0.56958  -0.55070  -0.52962
 Alpha  occ. eigenvalues --   -0.48129  -0.47405  -0.46550  -0.41288  -0.32671
 Alpha  occ. eigenvalues --   -0.31547
 Alpha virt. eigenvalues --    0.05286   0.05529   0.07251   0.07690   0.08897
 Alpha virt. eigenvalues --    0.09339   0.09952   0.11470   0.11644   0.11791
 Alpha virt. eigenvalues --    0.12334   0.12711   0.14657   0.15572   0.15653

 Mulliken charges:
               1
     1  C    0.040051
     2  C   -0.529262
     3  C   -0.186302
     4  C   -1.023196
     5  C    1.368461
     6  C   -0.841093
     7  N   -0.440052
     8  C    0.097561
     9  C   -0.317286
    10  H    0.449753
    11  H    0.241052
    12  H    0.239425
    13  H    0.221679
    14  H    0.223422
    15  H    0.225154
    16  H    0.230636
 Sum of Mulliken charges =  -0.00000

 Dipole moment (field-independent basis, Debye):
    X=              1.8315    Y=             -1.2316    Z=              0.0001  Tot=              2.2071
 Quadrupole moment (field-independent basis, Debye-Ang):
   XX=            -45.2920   YY=            -44.5735   ZZ=            -59.5246
   XY=             -4.0882   XZ=              0.0006   YZ=             -0.0012

 Normal termination of Gaussian 16 at Wed Jun 23 08:21:13 2021.
