 Gaussian 16, Revision C.01,
 Gaussian 16:  AS64L-G16RevC.01  3-Jul-2019

 ---------------------------------------------------------------
 # td= (nstates=6, root=1) CAM-B3LYP/6-31+G* Opt density=current
 ---------------------------------------------------------------

 -----------------
 FuncsCAM-B3LYP2nd
 -----------------
 Symbolic Z-matrix:
 Charge =  0 Multiplicity = 1

 SCF Done:  E(RCAM-B3LYP) =  -363.623970640     A.U. after   15 cycles
 Total Energy, E(TD-HF/TD-DFT) =  -363.439479573
 SCF Done:  E(RCAM-B3LYP) =  -363.619957251     A.U. after   14 cycles
 Total Energy, E(TD-HF/TD-DFT) =  -363.444177763
 SCF Done:  E(RCAM-B3LYP) =  -363.618530869     A.U. after   13 cycles
 Total Energy, E(TD-HF/TD-DFT) =  -363.444819739
 SCF Done:  E(RCAM-B3LYP) =  -363.616635038     A.U. after   13 cycles
 Total Energy, E(TD-HF/TD-DFT) =  -363.445311698
 SCF Done:  E(RCAM-B3LYP) =  -363.609236533     A.U. after   14 cycles
 Total Energy, E(TD-HF/TD-DFT) =  -363.445197349
 SCF Done:  E(RCAM-B3LYP) =  -363.613486516     A.U. after   12 cycles
 Total Energy, E(TD-HF/TD-DFT) =  -363.446263464
 SCF Done:  E(RCAM-B3LYP) =  -363.608082154     A.U. after   14 cycles
 Total Energy, E(TD-HF/TD-DFT) =  -363.446691410
 SCF Done:  E(RCAM-B3LYP) =  -363.614046087     A.U. after   14 cycles
 Total Energy, E(TD-HF/TD-DFT) =  -363.447890589
 SCF Done:  E(RCAM-B3LYP) =  -363.613266160     A.U. after   13 cycles
 Total Energy, E(TD-HF/TD-DFT) =  -363.448308747
 SCF Done:  E(RCAM-B3LYP) =  -363.613679002     A.U. after   12 cycles
 Total Energy, E(TD-HF/TD-DFT) =  -363.448526477
 SCF Done:  E(RCAM-B3LYP) =  -363.612916396     A.U. after   12 cycles
 Total Energy, E(TD-HF/TD-DFT) =  -363.448567123
 SCF Done:  E(RCAM-B3LYP) =  -363.613291585     A.U. after   11 cycles
 Total Energy, E(TD-HF/TD-DFT) =  -363.448587538
 SCF Done:  E(RCAM-B3LYP) =  -363.613441492     A.U. after   11 cycles
 Total Energy, E(TD-HF/TD-DFT) =  -363.448595947
 SCF Done:  E(RCAM-B3LYP) =  -363.613453108     A.U. after    9 cycles
 Total Energy, E(TD-HF/TD-DFT) =  -363.448596887
 SCF Done:  E(RCAM-B3LYP) =  -363.613426886     A.U. after    9 cycles

 Excitation energies and oscillator strengths:

 Excited State   1:      Singlet-A      4.4852 eV  276.43 nm  f=0.1632  <S**2>=0.000
      30 -> 37         0.11452
      31 -> 32         0.68854
 This state for optimization and/or second-order correction.
 Total Energy, E(TD-HF/TD-DFT) =  -363.448597255
 Copying the excited state density for this state as the 1-particle RhoCI density.

 Excited State   2:      Singlet-A      4.9010 eV  252.98 nm  f=0.0035  <S**2>=0.000
      31 -> 33         0.68988

 Excited State   3:      Singlet-A      4.9449 eV  250.73 nm  f=0.0109  <S**2>=0.000
      30 -> 32        -0.55053
      31 -> 37         0.40828

 Excited State   4:      Singlet-A      5.5686 eV  222.65 nm  f=0.0012  <S**2>=0.000
      31 -> 34         0.63917
      31 -> 35        -0.22644

 Excited State   5:      Singlet-A      5.6256 eV  220.39 nm  f=0.0035  <S**2>=0.000
      31 -> 34         0.22047
      31 -> 35         0.62663
      31 -> 36         0.15417

 Excited State   6:      Singlet-A      6.0015 eV  206.59 nm  f=0.4982  <S**2>=0.000
      30 -> 32         0.35445
      31 -> 37         0.53666
      31 -> 39         0.22957

 Optimization completed.
    -- Stationary point found.

                         Standard orientation:
 ---------------------------------------------------------------------
 Center     Atomic      Atomic             Coordinates (Angstroms)
 Number     Number       Type             X           Y           Z
 ---------------------------------------------------------------------
      1          6           0       -2.192991    0.643474   -0.000253
      2          6           0       -2.139270   -0.733973   -0.000258
      3          6           0       -0.878533   -1.454829   -0.000600
      4          6           0        0.257244   -0.656486    0.001175
      5          6           0        0.234594    0.753204    0.001149
      6          6           0       -1.017621    1.443116    0.000247
      7          7           0        1.606924   -1.037482    0.000261
      8          6           0        1.573797    1.186290   -0.000384
      9          6           0        2.418138    0.034333   -0.001144
     10          1           0        1.923193   -1.998063    0.001424
     11          1           0        1.932219    2.206994   -0.001590
     12          1           0        3.494075   -0.051417    0.000550
     13          1           0       -3.060599   -1.308249   -0.000319
     14          1           0       -0.843386   -2.537938   -0.001062
     15          1           0       -3.161618    1.134258   -0.000788
     16          1           0       -1.064501    2.526014    0.000370
 ---------------------------------------------------------------------

 The electronic state is 1-A.
 Alpha  occ. eigenvalues --  -14.46148 -10.30485 -10.29783 -10.27399 -10.26748
 Alpha  occ. eigenvalues --  -10.26482 -10.26302 -10.25987 -10.25163  -1.07145
 Alpha  occ. eigenvalues --   -0.92234  -0.86096  -0.82342  -0.78857  -0.70654
 Alpha  occ. eigenvalues --   -0.67330  -0.65352  -0.61451  -0.55577  -0.54410
 Alpha  occ. eigenvalues --   -0.50851  -0.50161  -0.49720  -0.47161  -0.46070
 Alpha  occ. eigenvalues --   -0.41405  -0.41072  -0.40241  -0.33617  -0.28750
 Alpha  occ. eigenvalues --   -0.24616
 Alpha virt. eigenvalues --    0.01255   0.02323   0.04254   0.04804   0.06153
 Alpha virt. eigenvalues --    0.06310   0.06357   0.08024   0.08516   0.08998
 Alpha virt. eigenvalues --    0.09011   0.09354   0.11338   0.11780   0.12995

 Mulliken charges:
               1
     1  C    0.016932
     2  C   -0.365977
     3  C   -0.400081
     4  C   -0.830422
     5  C    1.324370
     6  C   -0.769071
     7  N   -0.429715
     8  C    0.134699
     9  C   -0.291355
    10  H    0.438909
    11  H    0.219323
    12  H    0.224581
    13  H    0.179868
    14  H    0.183536
    15  H    0.177189
    16  H    0.187213
 Sum of Mulliken charges =  -0.00000

 Dipole moment (field-independent basis, Debye):
    X=              4.0989    Y=             -1.4034    Z=              0.0068  Tot=              4.3325
 Quadrupole moment (field-independent basis, Debye-Ang):
   XX=            -45.3632   YY=            -47.0196   ZZ=            -61.1556
   XY=             -2.3822   XZ=              0.0173   YZ=             -0.0071

 Normal termination of Gaussian 16 at Wed Jun  9 12:53:39 2021.
