 Gaussian 16, Revision C.01,
 Gaussian 16:  AS64L-G16RevC.01  3-Jul-2019

 -----------------------------------------------------------
 # td= (nstates=6, root=1) N12SX/6-31+G* Opt density=current
 -----------------------------------------------------------

 ----------------
 FuncsN12SX-V-1st
 ----------------
 Symbolic Z-matrix:
 Charge =  0 Multiplicity = 1

 SCF Done:  E(RN12SX) =  -363.666126635     A.U. after   15 cycles
 Total Energy, E(TD-HF/TD-DFT) =  -363.488671431
 SCF Done:  E(RN12SX) =  -363.659246385     A.U. after   13 cycles
 Total Energy, E(TD-HF/TD-DFT) =  -363.497676259
 SCF Done:  E(RN12SX) =  -363.655803007     A.U. after   13 cycles
 Total Energy, E(TD-HF/TD-DFT) =  -363.498743133
 SCF Done:  E(RN12SX) =  -363.655373883     A.U. after   11 cycles
 Total Energy, E(TD-HF/TD-DFT) =  -363.498831677
 SCF Done:  E(RN12SX) =  -363.655397957     A.U. after   11 cycles
 Total Energy, E(TD-HF/TD-DFT) =  -363.498850386
 SCF Done:  E(RN12SX) =  -363.655515395     A.U. after   10 cycles

 Excitation energies and oscillator strengths:

 Excited State   1:      Singlet-A      4.2630 eV  290.84 nm  f=0.1051  <S**2>=0.000
      29 -> 32         0.10153
      31 -> 32         0.68393
 This state for optimization and/or second-order correction.
 Total Energy, E(TD-HF/TD-DFT) =  -363.498852255
 Copying the excited state density for this state as the 1-particle RhoCI density.

 Excited State   2:      Singlet-A      4.5256 eV  273.96 nm  f=0.0016  <S**2>=0.000
      31 -> 33         0.70521

 Excited State   3:      Singlet-A      4.8538 eV  255.44 nm  f=0.0078  <S**2>=0.000
      30 -> 32         0.54227
      31 -> 36        -0.43672

 Excited State   4:      Singlet-A      5.1256 eV  241.89 nm  f=0.0000  <S**2>=0.000
      31 -> 34         0.70401

 Excited State   5:      Singlet-A      5.2612 eV  235.66 nm  f=0.0013  <S**2>=0.000
      31 -> 35         0.70210

 Excited State   6:      Singlet-A      5.5722 eV  222.50 nm  f=0.0014  <S**2>=0.000
      30 -> 33         0.69574

 Optimization completed.
    -- Stationary point found.

                         Standard orientation:
 ---------------------------------------------------------------------
 Center     Atomic      Atomic             Coordinates (Angstroms)
 Number     Number       Type             X           Y           Z
 ---------------------------------------------------------------------
      1          6           0       -2.186523    0.647689   -0.000001
      2          6           0       -2.133147   -0.731601    0.000041
      3          6           0       -0.890006   -1.457546    0.000052
      4          6           0        0.252512   -0.648193    0.000024
      5          6           0        0.226880    0.747576   -0.000040
      6          6           0       -1.011045    1.447978   -0.000043
      7          7           0        1.602966   -1.034072   -0.000012
      8          6           0        1.581572    1.179301   -0.000152
      9          6           0        2.418840    0.026039    0.000126
     10          1           0        1.910583   -1.992120    0.000130
     11          1           0        1.941225    2.195552   -0.000239
     12          1           0        3.490716   -0.061810    0.000257
     13          1           0       -3.056554   -1.296296    0.000057
     14          1           0       -0.855519   -2.536364   -0.000060
     15          1           0       -3.152687    1.135147   -0.000019
     16          1           0       -1.053026    2.526944   -0.000077
 ---------------------------------------------------------------------

 The electronic state is 1-A.
 Alpha  occ. eigenvalues --  -14.43926 -10.27820 -10.27436 -10.25019 -10.24341
 Alpha  occ. eigenvalues --  -10.24007 -10.23932 -10.23600 -10.22806  -0.98593
 Alpha  occ. eigenvalues --   -0.83958  -0.77653  -0.74044  -0.70819  -0.62877
 Alpha  occ. eigenvalues --   -0.59455  -0.57616  -0.54077  -0.48151  -0.47098
 Alpha  occ. eigenvalues --   -0.43628  -0.43091  -0.42109  -0.40023  -0.38957
 Alpha  occ. eigenvalues --   -0.34704  -0.34083  -0.33080  -0.26795  -0.22730
 Alpha  occ. eigenvalues --   -0.18962
 Alpha virt. eigenvalues --   -0.03423  -0.01286   0.00673   0.01282   0.01336
 Alpha virt. eigenvalues --    0.02622   0.02803   0.03675   0.05043   0.05400
 Alpha virt. eigenvalues --    0.05487   0.05867   0.07931   0.08164   0.09535

 Mulliken charges:
               1
     1  C   -0.000138
     2  C   -0.397752
     3  C   -0.469356
     4  C   -1.290873
     5  C    1.855467
     6  C   -0.809167
     7  N   -0.348222
     8  C    0.041477
     9  C   -0.242826
    10  H    0.437642
    11  H    0.234099
    12  H    0.233121
    13  H    0.188343
    14  H    0.189099
    15  H    0.186348
    16  H    0.192738
 Sum of Mulliken charges =  -0.00000

 Dipole moment (field-independent basis, Debye):
    X=              4.6585    Y=             -1.1660    Z=             -0.0005  Tot=              4.8022
 Quadrupole moment (field-independent basis, Debye-Ang):
   XX=            -43.6240   YY=            -46.2055   ZZ=            -60.0627
   XY=             -2.1751   XZ=             -0.0001   YZ=              0.0004

 Normal termination of Gaussian 16 at Wed Jun 16 10:45:35 2021.
