 Gaussian 16, Revision C.01,
 Gaussian 16:  AS64L-G16RevC.01  3-Jul-2019

 -----------------------------------------------------------
 # td= (nstates=6, root=1) WB97X/6-31+G* Opt density=current
 -----------------------------------------------------------

 ----------------
 FuncsWB97X-V-1st
 ----------------
 Symbolic Z-matrix:
 Charge =  0 Multiplicity = 1

 SCF Done:  E(RwB97X) =  -363.729156871     A.U. after   16 cycles
 Total Energy, E(TD-HF/TD-DFT) =  -363.539623068
 SCF Done:  E(RwB97X) =  -363.724414326     A.U. after   14 cycles
 Total Energy, E(TD-HF/TD-DFT) =  -363.545386411
 SCF Done:  E(RwB97X) =  -363.723488764     A.U. after   13 cycles
 Total Energy, E(TD-HF/TD-DFT) =  -363.545744007
 SCF Done:  E(RwB97X) =  -363.723059992     A.U. after   13 cycles
 Total Energy, E(TD-HF/TD-DFT) =  -363.545807745
 SCF Done:  E(RwB97X) =  -363.723092846     A.U. after   12 cycles

 Excitation energies and oscillator strengths:

 Excited State   1:      Singlet-A      4.8241 eV  257.01 nm  f=0.0662  <S**2>=0.000
      30 -> 32        -0.49568
      30 -> 36         0.13736
      31 -> 32         0.39084
      31 -> 36         0.24330
 This state for optimization and/or second-order correction.
 Total Energy, E(TD-HF/TD-DFT) =  -363.545812234
 Copying the excited state density for this state as the 1-particle RhoCI density.

 Excited State   2:      Singlet-A      5.1290 eV  241.73 nm  f=0.1100  <S**2>=0.000
      30 -> 32        -0.35066
      30 -> 36        -0.17162
      31 -> 32        -0.53508
      31 -> 36         0.21968

 Excited State   3:      Singlet-A      6.0187 eV  206.00 nm  f=0.0028  <S**2>=0.000
      31 -> 33        -0.63799
      31 -> 34         0.10661
      31 -> 40        -0.15165

 Excited State   4:      Singlet-A      6.3608 eV  194.92 nm  f=0.0094  <S**2>=0.000
      30 -> 33        -0.60951
      30 -> 40        -0.18101
      31 -> 34        -0.18233

 Excited State   5:      Singlet-A      6.3992 eV  193.75 nm  f=0.8601  <S**2>=0.000
      30 -> 32        -0.32782
      31 -> 36        -0.60211

 Excited State   6:      Singlet-A      6.5747 eV  188.58 nm  f=0.2324  <S**2>=0.000
      30 -> 36        -0.63182
      31 -> 32         0.21307
      31 -> 39        -0.16832

 Optimization completed.
    -- Stationary point found.

                         Standard orientation:
 ---------------------------------------------------------------------
 Center     Atomic      Atomic             Coordinates (Angstroms)
 Number     Number       Type             X           Y           Z
 ---------------------------------------------------------------------
      1          6           0       -2.148348    0.712124   -0.000004
      2          6           0       -2.172144   -0.701310    0.000022
      3          6           0       -0.962411   -1.440758    0.000020
      4          6           0        0.234862   -0.681394   -0.000010
      5          6           0        0.275235    0.770801   -0.000051
      6          6           0       -0.941941    1.476365   -0.000039
      7          7           0        1.518740   -1.095898   -0.000004
      8          6           0        1.663306    1.143724   -0.000061
      9          6           0        2.414177    0.000508    0.000090
     10          1           0        1.805281   -2.063832    0.000321
     11          1           0        2.051836    2.154379   -0.000139
     12          1           0        3.481826   -0.162625    0.000064
     13          1           0       -3.126613   -1.217757    0.000033
     14          1           0       -0.949297   -2.526421    0.000001
     15          1           0       -3.095842    1.246092   -0.000006
     16          1           0       -0.974782    2.561095   -0.000042
 ---------------------------------------------------------------------

 The electronic state is 1-A.
 Alpha  occ. eigenvalues --  -14.46280 -10.31399 -10.31152 -10.28224 -10.27958
 Alpha  occ. eigenvalues --  -10.27859 -10.27659 -10.27064 -10.26792  -1.11406
 Alpha  occ. eigenvalues --   -0.96319  -0.91600  -0.85704  -0.84761  -0.74850
 Alpha  occ. eigenvalues --   -0.71419  -0.69993  -0.65318  -0.60209  -0.58172
 Alpha  occ. eigenvalues --   -0.54186  -0.53851  -0.53781  -0.51885  -0.50116
 Alpha  occ. eigenvalues --   -0.45498  -0.43983  -0.43896  -0.38381  -0.30575
 Alpha  occ. eigenvalues --   -0.29456
 Alpha virt. eigenvalues --    0.05088   0.06659   0.08398   0.08773   0.09582
 Alpha virt. eigenvalues --    0.10066   0.10423   0.11917   0.12427   0.12903
 Alpha virt. eigenvalues --    0.12920   0.13384   0.15299   0.15958   0.16706

 Mulliken charges:
               1
     1  C    0.026062
     2  C   -0.445213
     3  C   -0.199391
     4  C   -0.643803
     5  C    0.902207
     6  C   -0.671265
     7  N   -0.518194
     8  C    0.174608
     9  C   -0.336888
    10  H    0.439973
    11  H    0.222848
    12  H    0.224773
    13  H    0.201877
    14  H    0.205741
    15  H    0.205569
    16  H    0.211098
 Sum of Mulliken charges =  -0.00000

 Dipole moment (field-independent basis, Debye):
    X=              1.8416    Y=             -1.1976    Z=              0.0002  Tot=              2.1968
 Quadrupole moment (field-independent basis, Debye-Ang):
   XX=            -46.1331   YY=            -45.2310   ZZ=            -60.0415
   XY=             -4.0383   XZ=              0.0006   YZ=             -0.0013

 Normal termination of Gaussian 16 at Wed Jun 16 07:52:13 2021.
