 Gaussian 16, Revision C.01,
 Gaussian 16:  AS64L-G16RevC.01  3-Jul-2019

 ---------------------------------------------------------
 # td= (nstates=6, root=1) BMK/6-31+G* Opt density=current
 ---------------------------------------------------------

 --------------
 FuncsBMK-V-1st
 --------------
 Symbolic Z-matrix:
 Charge =  0 Multiplicity = 1

 SCF Done:  E(RBMK) =  -363.584024432     A.U. after   14 cycles
 Total Energy, E(TD-HF/TD-DFT) =  -363.396157730
 SCF Done:  E(RBMK) =  -363.578903980     A.U. after   13 cycles
 Total Energy, E(TD-HF/TD-DFT) =  -363.407967324
 SCF Done:  E(RBMK) =  -363.573945641     A.U. after   13 cycles
 Total Energy, E(TD-HF/TD-DFT) =  -363.409820432
 SCF Done:  E(RBMK) =  -363.573144985     A.U. after   12 cycles
 Total Energy, E(TD-HF/TD-DFT) =  -363.410067407
 SCF Done:  E(RBMK) =  -363.573275738     A.U. after   12 cycles
 Total Energy, E(TD-HF/TD-DFT) =  -363.410125458
 SCF Done:  E(RBMK) =  -363.573521635     A.U. after   11 cycles

 Excitation energies and oscillator strengths:

 Excited State   1:      Singlet-A      4.4460 eV  278.87 nm  f=0.1381  <S**2>=0.000
      30 -> 34         0.10384
      31 -> 32         0.68936
 This state for optimization and/or second-order correction.
 Total Energy, E(TD-HF/TD-DFT) =  -363.410133419
 Copying the excited state density for this state as the 1-particle RhoCI density.

 Excited State   2:      Singlet-A      4.9840 eV  248.76 nm  f=0.0124  <S**2>=0.000
      30 -> 32         0.55497
      31 -> 34        -0.41736

 Excited State   3:      Singlet-A      5.3194 eV  233.08 nm  f=0.0025  <S**2>=0.000
      31 -> 33         0.69562

 Excited State   4:      Singlet-A      5.9536 eV  208.25 nm  f=0.0003  <S**2>=0.000
      31 -> 35         0.69023

 Excited State   5:      Singlet-A      6.0554 eV  204.75 nm  f=0.0025  <S**2>=0.000
      31 -> 36        -0.67742
      31 -> 37        -0.13981

 Excited State   6:      Singlet-A      6.0750 eV  204.09 nm  f=0.5941  <S**2>=0.000
      29 -> 32        -0.10332
      30 -> 32         0.36595
      31 -> 34         0.53935
      31 -> 39         0.21032

 Optimization completed.
    -- Stationary point found.

                         Standard orientation:
 ---------------------------------------------------------------------
 Center     Atomic      Atomic             Coordinates (Angstroms)
 Number     Number       Type             X           Y           Z
 ---------------------------------------------------------------------
      1          6           0       -2.205660    0.647252   -0.000047
      2          6           0       -2.150574   -0.738732    0.000008
      3          6           0       -0.885065   -1.467263    0.000046
      4          6           0        0.259259   -0.655099    0.000037
      5          6           0        0.232972    0.759303   -0.000026
      6          6           0       -1.020910    1.457137   -0.000066
      7          7           0        1.609553   -1.036491    0.000049
      8          6           0        1.590073    1.192121   -0.000051
      9          6           0        2.432590    0.022805    0.000041
     10          1           0        1.917254   -2.001215    0.000152
     11          1           0        1.956502    2.213066   -0.000112
     12          1           0        3.510304   -0.075775    0.000043
     13          1           0       -3.074676   -1.314101    0.000022
     14          1           0       -0.847143   -2.552713    0.000045
     15          1           0       -3.177091    1.138622   -0.000075
     16          1           0       -1.068121    2.542410   -0.000076
 ---------------------------------------------------------------------

 The electronic state is 1-A.
 Alpha  occ. eigenvalues --  -14.72822 -10.52866 -10.52123 -10.49512 -10.48775
 Alpha  occ. eigenvalues --  -10.48489 -10.48441 -10.48059 -10.47299  -1.06711
 Alpha  occ. eigenvalues --   -0.90654  -0.84326  -0.80580  -0.77105  -0.68765
 Alpha  occ. eigenvalues --   -0.65247  -0.63222  -0.59395  -0.53463  -0.52164
 Alpha  occ. eigenvalues --   -0.48256  -0.47678  -0.47346  -0.44722  -0.43420
 Alpha  occ. eigenvalues --   -0.38924  -0.38443  -0.37636  -0.30984  -0.26365
 Alpha  occ. eigenvalues --   -0.22286
 Alpha virt. eigenvalues --   -0.00334   0.03001   0.04897   0.04926   0.05561
 Alpha virt. eigenvalues --    0.06593   0.07053   0.07512   0.09085   0.09403
 Alpha virt. eigenvalues --    0.09946   0.10166   0.12472   0.12877   0.13444

 Mulliken charges:
               1
     1  C   -0.032729
     2  C   -0.339226
     3  C   -0.308187
     4  C   -1.048229
     5  C    1.270874
     6  C   -0.611895
     7  N   -0.434045
     8  C    0.125866
     9  C   -0.243768
    10  H    0.439662
    11  H    0.229859
    12  H    0.233703
    13  H    0.178399
    14  H    0.179864
    15  H    0.176919
    16  H    0.182934
 Sum of Mulliken charges =   0.00000

 Dipole moment (field-independent basis, Debye):
    X=              4.4928    Y=             -1.3352    Z=              0.0001  Tot=              4.6869
 Quadrupole moment (field-independent basis, Debye-Ang):
   XX=            -43.8273   YY=            -46.0317   ZZ=            -60.5939
   XY=             -2.3958   XZ=              0.0003   YZ=             -0.0006

 Normal termination of Gaussian 16 at Wed Jun 23 09:48:14 2021.
