 Gaussian 16, Revision C.01,
 Gaussian 16:  AS64L-G16RevC.01  3-Jul-2019

 -----------------------------------------------------------
 # td= (nstates=6, root=1) M062X/6-31+G* Opt density=current
 -----------------------------------------------------------

 ---------------
 FuncsM062XII1st
 ---------------
 Symbolic Z-matrix:
 Charge =  0 Multiplicity = 1

 SCF Done:  E(RM062X) =  -363.671654518     A.U. after   15 cycles
 Total Energy, E(TD-HF/TD-DFT) =  -363.483715121
 SCF Done:  E(RM062X) =  -363.666847699     A.U. after   14 cycles
 Total Energy, E(TD-HF/TD-DFT) =  -363.490171207
 SCF Done:  E(RM062X) =  -363.664804119     A.U. after   13 cycles
 Total Energy, E(TD-HF/TD-DFT) =  -363.491219920
 SCF Done:  E(RM062X) =  -363.654028917     A.U. after   14 cycles
 Total Energy, E(TD-HF/TD-DFT) =  -363.491564978
 SCF Done:  E(RM062X) =  -363.659404215     A.U. after   13 cycles
 Total Energy, E(TD-HF/TD-DFT) =  -363.493018718
 SCF Done:  E(RM062X) =  -363.659478602     A.U. after   13 cycles
 Total Energy, E(TD-HF/TD-DFT) =  -363.494181502
 SCF Done:  E(RM062X) =  -363.660234256     A.U. after   13 cycles
 Total Energy, E(TD-HF/TD-DFT) =  -363.494510751
 SCF Done:  E(RM062X) =  -363.658880593     A.U. after   13 cycles
 Total Energy, E(TD-HF/TD-DFT) =  -363.494580985
 SCF Done:  E(RM062X) =  -363.660040846     A.U. after   11 cycles
 Total Energy, E(TD-HF/TD-DFT) =  -363.494601590
 SCF Done:  E(RM062X) =  -363.659845871     A.U. after   10 cycles

 Excitation energies and oscillator strengths:

 Excited State   1:      Singlet-A      4.4964 eV  275.74 nm  f=0.1546  <S**2>=0.000
      31 -> 32        -0.69112
 This state for optimization and/or second-order correction.
 Total Energy, E(TD-HF/TD-DFT) =  -363.494605617
 Copying the excited state density for this state as the 1-particle RhoCI density.

 Excited State   2:      Singlet-A      4.7550 eV  260.74 nm  f=0.0021  <S**2>=0.000
      31 -> 33         0.69424

 Excited State   3:      Singlet-A      5.0017 eV  247.89 nm  f=0.0089  <S**2>=0.000
      30 -> 32         0.54478
      31 -> 38        -0.41352

 Excited State   4:      Singlet-A      5.4390 eV  227.95 nm  f=0.0010  <S**2>=0.000
      31 -> 34         0.66867
      31 -> 35        -0.15643

 Excited State   5:      Singlet-A      5.5003 eV  225.41 nm  f=0.0022  <S**2>=0.000
      31 -> 34         0.15100
      31 -> 35         0.65622
      31 -> 36         0.15038

 Excited State   6:      Singlet-A      5.9322 eV  209.00 nm  f=0.0014  <S**2>=0.000
      30 -> 33        -0.52511
      31 -> 36        -0.33490
      31 -> 37        -0.25460

 Optimization completed.
    -- Stationary point found.

                         Standard orientation:
 ---------------------------------------------------------------------
 Center     Atomic      Atomic             Coordinates (Angstroms)
 Number     Number       Type             X           Y           Z
 ---------------------------------------------------------------------
      1          6           0       -2.193294    0.643087   -0.000049
      2          6           0       -2.138008   -0.736272    0.000008
      3          6           0       -0.879673   -1.459452    0.000069
      4          6           0        0.254995   -0.653659    0.000017
      5          6           0        0.231732    0.754674   -0.000041
      6          6           0       -1.019164    1.447347   -0.000056
      7          7           0        1.608577   -1.035031    0.000055
      8          6           0        1.575155    1.188223   -0.000047
      9          6           0        2.420902    0.030106    0.000039
     10          1           0        1.921362   -1.997883    0.000122
     11          1           0        1.935827    2.208348   -0.000081
     12          1           0        3.496647   -0.058671    0.000028
     13          1           0       -3.060488   -1.308841    0.000015
     14          1           0       -0.840469   -2.542056    0.000073
     15          1           0       -3.163832    1.130162   -0.000085
     16          1           0       -1.064957    2.529841   -0.000089
 ---------------------------------------------------------------------

 The electronic state is 1-A.
 Alpha  occ. eigenvalues --  -14.81474 -10.59299 -10.58633 -10.56214 -10.55546
 Alpha  occ. eigenvalues --  -10.55216 -10.55029 -10.54709 -10.53913  -1.09840
 Alpha  occ. eigenvalues --   -0.94058  -0.87488  -0.83719  -0.80013  -0.71372
 Alpha  occ. eigenvalues --   -0.67928  -0.65802  -0.61799  -0.55677  -0.54461
 Alpha  occ. eigenvalues --   -0.50591  -0.49972  -0.49939  -0.46842  -0.45542
 Alpha  occ. eigenvalues --   -0.40863  -0.40524  -0.40132  -0.33246  -0.28469
 Alpha  occ. eigenvalues --   -0.24142
 Alpha virt. eigenvalues --    0.00099   0.00593   0.02567   0.03096   0.04271
 Alpha virt. eigenvalues --    0.04563   0.05146   0.06594   0.06663   0.06960
 Alpha virt. eigenvalues --    0.07322   0.07597   0.09833   0.10222   0.10841

 Mulliken charges:
               1
     1  C   -0.050540
     2  C   -0.388891
     3  C   -0.276781
     4  C   -1.035200
     5  C    1.233135
     6  C   -0.608909
     7  N   -0.435419
     8  C    0.107571
     9  C   -0.282700
    10  H    0.461232
    11  H    0.242535
    12  H    0.244288
    13  H    0.195992
    14  H    0.198578
    15  H    0.194226
    16  H    0.200882
 Sum of Mulliken charges =  -0.00000

 Dipole moment (field-independent basis, Debye):
    X=              4.4249    Y=             -1.4096    Z=             -0.0002  Tot=              4.6440
 Quadrupole moment (field-independent basis, Debye-Ang):
   XX=            -44.5100   YY=            -46.7509   ZZ=            -61.3052
   XY=             -2.3289   XZ=             -0.0001   YZ=             -0.0003

 Normal termination of Gaussian 16 at Fri Jun 11 09:19:47 2021.
