 Gaussian 16, Revision C.01,
 Gaussian 16:  AS64L-G16RevC.01  3-Jul-2019

 -----------------------------------------------------------
 # td= (nstates=6, root=3) WB97X/6-31+G* Opt density=current
 -----------------------------------------------------------

 ----------------
 FuncsWB97X-V-3rd
 ----------------
 Symbolic Z-matrix:
 Charge =  0 Multiplicity = 1

 SCF Done:  E(RwB97X) =  -363.729156871     A.U. after   16 cycles
 Total Energy, E(TD-HF/TD-DFT) =  -363.508334811
 SCF Done:  E(RwB97X) =  -363.724062521     A.U. after   15 cycles
 Total Energy, E(TD-HF/TD-DFT) =  -363.515227276
 SCF Done:  E(RwB97X) =  -363.720505030     A.U. after   14 cycles
 Total Energy, E(TD-HF/TD-DFT) =  -363.516086268
 SCF Done:  E(RwB97X) =  -363.720334847     A.U. after   12 cycles
 Total Energy, E(TD-HF/TD-DFT) =  -363.516150188
 SCF Done:  E(RwB97X) =  -363.720222753     A.U. after   12 cycles
 Total Energy, E(TD-HF/TD-DFT) =  -363.516167631
 SCF Done:  E(RwB97X) =  -363.720288197     A.U. after   11 cycles

 Excitation energies and oscillator strengths:

 Excited State   1:      Singlet-A      4.8749 eV  254.33 nm  f=0.1810  <S**2>=0.000
      30 -> 36         0.15126
      31 -> 32         0.67337

 Excited State   2:      Singlet-A      5.1743 eV  239.61 nm  f=0.0084  <S**2>=0.000
      30 -> 32         0.51289
      31 -> 32        -0.10564
      31 -> 36        -0.43880

 Excited State   3:      Singlet-A      5.5543 eV  223.22 nm  f=0.0057  <S**2>=0.000
      29 -> 33         0.10134
      31 -> 33         0.66211
      31 -> 40         0.13733
 This state for optimization and/or second-order correction.
 Total Energy, E(TD-HF/TD-DFT) =  -363.516169840
 Copying the excited state density for this state as the 1-particle RhoCI density.

 Excited State   4:      Singlet-A      6.2890 eV  197.14 nm  f=0.5863  <S**2>=0.000
      30 -> 32         0.42035
      31 -> 36         0.50763
      31 -> 39         0.17780

 Excited State   5:      Singlet-A      6.2949 eV  196.96 nm  f=0.0131  <S**2>=0.000
      31 -> 33         0.11907
      31 -> 34        -0.21140
      31 -> 35         0.56868
      31 -> 37         0.17492
      31 -> 38         0.10966
      31 -> 40        -0.13429
      31 -> 43         0.12120

 Excited State   6:      Singlet-A      6.3065 eV  196.60 nm  f=0.0005  <S**2>=0.000
      31 -> 34         0.59659
      31 -> 35         0.13634
      31 -> 40        -0.20645
      31 -> 43         0.14209

 Optimization completed.
    -- Stationary point found.

                         Standard orientation:
 ---------------------------------------------------------------------
 Center     Atomic      Atomic             Coordinates (Angstroms)
 Number     Number       Type             X           Y           Z
 ---------------------------------------------------------------------
      1          6           0       -2.179889    0.644647   -0.000111
      2          6           0       -2.101145   -0.754125   -0.000006
      3          6           0       -0.871887   -1.437496    0.000052
      4          6           0        0.262382   -0.660348    0.000085
      5          6           0        0.216930    0.756378    0.000004
      6          6           0       -1.027012    1.416684   -0.000191
      7          7           0        1.616201   -1.029468    0.000132
      8          6           0        1.556175    1.203004    0.000194
      9          6           0        2.377745    0.041766   -0.000162
     10          1           0        1.984666   -2.009302    0.000189
     11          1           0        1.920973    2.224200    0.000184
     12          1           0        3.459379   -0.042045   -0.000302
     13          1           0       -3.018873   -1.335437    0.000020
     14          1           0       -0.826378   -2.520089    0.000132
     15          1           0       -3.153902    1.124538   -0.000130
     16          1           0       -1.079068    2.501357   -0.000204
 ---------------------------------------------------------------------

 The electronic state is 1-A.
 Alpha  occ. eigenvalues --  -14.47130 -10.31127 -10.30504 -10.27864 -10.27159
 Alpha  occ. eigenvalues --  -10.27122 -10.27092 -10.26788 -10.25923  -1.12558
 Alpha  occ. eigenvalues --   -0.97744  -0.90913  -0.87340  -0.83779  -0.74998
 Alpha  occ. eigenvalues --   -0.71536  -0.70158  -0.65903  -0.59446  -0.58550
 Alpha  occ. eigenvalues --   -0.55084  -0.54595  -0.54252  -0.50949  -0.49422
 Alpha  occ. eigenvalues --   -0.45700  -0.45042  -0.43912  -0.37795  -0.32145
 Alpha  occ. eigenvalues --   -0.28012
 Alpha virt. eigenvalues --    0.05632   0.06300   0.08359   0.08926   0.09852
 Alpha virt. eigenvalues --    0.10116   0.10525   0.12020   0.12395   0.12936
 Alpha virt. eigenvalues --    0.13010   0.13320   0.15334   0.15899   0.16806

 Mulliken charges:
               1
     1  C   -0.291472
     2  C   -0.659254
     3  C   -0.510941
     4  C    0.146831
     5  C    0.660764
     6  C    0.089359
     7  N    0.688173
     8  C   -4.091134
     9  C    2.044150
    10  H    0.383746
    11  H    0.271809
    12  H    0.291293
    13  H    0.234936
    14  H    0.273800
    15  H    0.226064
    16  H    0.241873
 Sum of Mulliken charges =  -0.00000

 Dipole moment (field-independent basis, Debye):
    X=             -5.4928    Y=              4.8069    Z=             -0.0007  Tot=              7.2991
 Quadrupole moment (field-independent basis, Debye-Ang):
   XX=            -61.9994   YY=            -60.1690   ZZ=            -67.5217
   XY=             12.5859   XZ=              0.0003   YZ=             -0.0008

 Normal termination of Gaussian 16 at Wed Jun 16 08:03:49 2021.
