 Gaussian 16, Revision C.01,
 Gaussian 16:  ES64L-G16RevC.01  3-Jul-2019

 ---------------------------------------------------------------
 # td= (nstates=6, root=2) SOGGA11X/6-31G(d) Opt density=current
 ---------------------------------------------------------------

 ----------------
 FuncsSOGGA11X2nd
 ----------------
 Symbolic Z-matrix:
 Charge =  0 Multiplicity = 1

 SCF Done:  E(RSOGGA11X) =  -363.717358798     A.U. after   15 cycles
 Total Energy, E(TD-HF/TD-DFT) =  -363.523611372
 SCF Done:  E(RSOGGA11X) =  -363.712209038     A.U. after   13 cycles
 Total Energy, E(TD-HF/TD-DFT) =  -363.531572584
 SCF Done:  E(RSOGGA11X) =  -363.700641197     A.U. after   13 cycles
 Total Energy, E(TD-HF/TD-DFT) =  -363.534400208
 SCF Done:  E(RSOGGA11X) =  -363.704854662     A.U. after   12 cycles
 Total Energy, E(TD-HF/TD-DFT) =  -363.535758068
 SCF Done:  E(RSOGGA11X) =  -363.706091391     A.U. after   12 cycles
 Total Energy, E(TD-HF/TD-DFT) =  -363.536337814
 SCF Done:  E(RSOGGA11X) =  -363.706287376     A.U. after    9 cycles
 Total Energy, E(TD-HF/TD-DFT) =  -363.536360196
 SCF Done:  E(RSOGGA11X) =  -363.706414556     A.U. after    9 cycles
 Total Energy, E(TD-HF/TD-DFT) =  -363.536364619
 SCF Done:  E(RSOGGA11X) =  -363.706385992     A.U. after    7 cycles

 Excitation energies and oscillator strengths:

 Excited State   1:      Singlet-A      5.1223 eV  242.05 nm  f=0.0154  <S**2>=0.000
      30 -> 32        -0.55692
      31 -> 33         0.42099

 Excited State   2:      Singlet-A      4.6265 eV  267.99 nm  f=0.1401  <S**2>=0.000
      30 -> 33         0.12167
      31 -> 32         0.68732
 This state for optimization and/or second-order correction.
 Total Energy, E(TD-HF/TD-DFT) =  -363.536365583
 Copying the excited state density for this state as the 1-particle RhoCI density.

 Excited State   3:      Singlet-A      6.3925 eV  193.95 nm  f=0.5254  <S**2>=0.000
      29 -> 32        -0.22348
      30 -> 32         0.35543
      31 -> 33         0.52419
      31 -> 34        -0.16154

 Excited State   4:      Singlet-A      6.7019 eV  185.00 nm  f=0.1621  <S**2>=0.000
      29 -> 32        -0.58724
      30 -> 32        -0.20107
      30 -> 33         0.24366
      31 -> 33        -0.18900
      31 -> 34        -0.11573

 Excited State   5:      Singlet-A      6.9566 eV  178.22 nm  f=0.0002  <S**2>=0.000
      29 -> 35         0.10431
      31 -> 35         0.69437

 Excited State   6:      Singlet-A      7.0887 eV  174.90 nm  f=0.0636  <S**2>=0.000
      29 -> 32        -0.15156
      29 -> 33         0.10083
      31 -> 34         0.66567

 Optimization completed.
    -- Stationary point found.

                         Standard orientation:
 ---------------------------------------------------------------------
 Center     Atomic      Atomic             Coordinates (Angstroms)
 Number     Number       Type             X           Y           Z
 ---------------------------------------------------------------------
      1          6           0       -2.196265    0.646531    0.000574
      2          6           0       -2.145396   -0.733206    0.000644
      3          6           0       -0.886702   -1.458038   -0.000147
      4          6           0        0.254843   -0.655429   -0.001141
      5          6           0        0.233057    0.756041   -0.001037
      6          6           0       -1.017273    1.448197   -0.000656
      7          7           0        1.605762   -1.037009   -0.000024
      8          6           0        1.585270    1.185194    0.000583
      9          6           0        2.429086    0.026955    0.001246
     10          1           0        1.915434   -1.997859   -0.001125
     11          1           0        1.947996    2.205042    0.001671
     12          1           0        3.503485   -0.069109   -0.000918
     13          1           0       -3.068868   -1.305400    0.001720
     14          1           0       -0.850344   -2.541205   -0.000623
     15          1           0       -3.165191    1.138868    0.001581
     16          1           0       -1.062576    2.531245   -0.002538
 ---------------------------------------------------------------------

 The electronic state is 1-A.
 Alpha  occ. eigenvalues --  -14.70272 -10.49221 -10.48424 -10.46081 -10.45427
 Alpha  occ. eigenvalues --  -10.45108 -10.44943 -10.44604 -10.43863  -1.07959
 Alpha  occ. eigenvalues --   -0.92099  -0.85583  -0.81812  -0.78237  -0.69337
 Alpha  occ. eigenvalues --   -0.65750  -0.63717  -0.59448  -0.53614  -0.52234
 Alpha  occ. eigenvalues --   -0.48300  -0.47701  -0.46792  -0.44633  -0.43581
 Alpha  occ. eigenvalues --   -0.38870  -0.38386  -0.37113  -0.30374  -0.25680
 Alpha  occ. eigenvalues --   -0.21641
 Alpha virt. eigenvalues --    0.00784   0.06279   0.10237   0.11390   0.14276
 Alpha virt. eigenvalues --    0.17218   0.18530   0.20473   0.21619   0.22544
 Alpha virt. eigenvalues --    0.22562   0.26071   0.28837   0.30410   0.32402

 Mulliken charges:
               1
     1  C   -0.191137
     2  C   -0.203930
     3  C   -0.282439
     4  C    0.292675
     5  C    0.036592
     6  C   -0.272562
     7  N   -0.671595
     8  C   -0.249955
     9  C    0.031863
    10  H    0.387919
    11  H    0.221024
    12  H    0.226776
    13  H    0.170085
    14  H    0.168133
    15  H    0.167943
    16  H    0.168606
 Sum of Mulliken charges =  -0.00000

 Dipole moment (field-independent basis, Debye):
    X=              4.2062    Y=             -1.3522    Z=             -0.0029  Tot=              4.4182
 Quadrupole moment (field-independent basis, Debye-Ang):
   XX=            -42.4030   YY=            -44.3184   ZZ=            -57.9258
   XY=             -2.5396   XZ=             -0.0120   YZ=              0.0041

 Normal termination of Gaussian 16 at Thu Mar  4 05:11:20 2021.
