 Gaussian 16, Revision C.01,
 Gaussian 16:  AS64L-G16RevC.01  3-Jul-2019

 ------------------------------------------------------------
 # td= (nstates=6, root=1) B3PW91/6-31+G* Opt density=current
 ------------------------------------------------------------

 -----------------
 FuncsB3PW91-V-1st
 -----------------
 Symbolic Z-matrix:
 Charge =  0 Multiplicity = 1

 SCF Done:  E(RB3PW91) =  -363.692543051     A.U. after   14 cycles
 Total Energy, E(TD-HF/TD-DFT) =  -363.515721747
 SCF Done:  E(RB3PW91) =  -363.685892820     A.U. after   13 cycles
 Total Energy, E(TD-HF/TD-DFT) =  -363.526072916
 SCF Done:  E(RB3PW91) =  -363.682279563     A.U. after   13 cycles
 SCF Done:  E(RB3PW91) =  -363.681749781     A.U. after   10 cycles

 Excitation energies and oscillator strengths:

 Excited State   1:      Singlet-A      4.1984 eV  295.31 nm  f=0.0931  <S**2>=0.000
      29 -> 32         0.11429
      31 -> 32         0.68212
 This state for optimization and/or second-order correction.
 Total Energy, E(TD-HF/TD-DFT) =  -363.527460007
 Copying the excited state density for this state as the 1-particle RhoCI density.

 Excited State   2:      Singlet-A      4.8085 eV  257.85 nm  f=0.0072  <S**2>=0.000
      30 -> 32         0.54052
      31 -> 34        -0.43956

 Excited State   3:      Singlet-A      4.8327 eV  256.55 nm  f=0.0020  <S**2>=0.000
      31 -> 33         0.70409

 Excited State   4:      Singlet-A      5.4223 eV  228.66 nm  f=0.0000  <S**2>=0.000
      31 -> 35         0.70059

 Excited State   5:      Singlet-A      5.5669 eV  222.72 nm  f=0.0030  <S**2>=0.000
      31 -> 36        -0.69576

 Excited State   6:      Singlet-A      5.7846 eV  214.33 nm  f=0.4041  <S**2>=0.000
      29 -> 32         0.25913
      30 -> 32        -0.31509
      30 -> 34        -0.10932
      31 -> 32        -0.10167
      31 -> 34        -0.46531
      31 -> 37        -0.27184

 Optimization completed.
    -- Stationary point found.

                         Standard orientation:
 ---------------------------------------------------------------------
 Center     Atomic      Atomic             Coordinates (Angstroms)
 Number     Number       Type             X           Y           Z
 ---------------------------------------------------------------------
      1          6           0       -2.192942    0.650026   -0.000039
      2          6           0       -2.139968   -0.733198    0.000013
      3          6           0       -0.895733   -1.464253    0.000049
      4          6           0        0.250481   -0.648006    0.000036
      5          6           0        0.225786    0.749135   -0.000024
      6          6           0       -1.013559    1.455001   -0.000061
      7          7           0        1.608826   -1.035977    0.000039
      8          6           0        1.589366    1.181514   -0.000068
      9          6           0        2.428441    0.024125    0.000048
     10          1           0        1.917868   -1.999425    0.000142
     11          1           0        1.952778    2.201712   -0.000132
     12          1           0        3.504866   -0.067622    0.000084
     13          1           0       -3.068803   -1.299129    0.000023
     14          1           0       -0.860811   -2.547887    0.000031
     15          1           0       -3.164058    1.139323   -0.000068
     16          1           0       -1.054855    2.538806   -0.000078
 ---------------------------------------------------------------------

 The electronic state is 1-A.
 Alpha  occ. eigenvalues --  -14.38036 -10.21777 -10.21445 -10.19107 -10.18406
 Alpha  occ. eigenvalues --  -10.18051 -10.17958 -10.17662 -10.16861  -0.99242
 Alpha  occ. eigenvalues --   -0.84412  -0.78104  -0.74618  -0.71432  -0.63448
 Alpha  occ. eigenvalues --   -0.60038  -0.58215  -0.54648  -0.48830  -0.47738
 Alpha  occ. eigenvalues --   -0.44211  -0.43712  -0.42687  -0.40648  -0.39605
 Alpha  occ. eigenvalues --   -0.35494  -0.34777  -0.33940  -0.27695  -0.23809
 Alpha  occ. eigenvalues --   -0.20036
 Alpha virt. eigenvalues --   -0.03029   0.00636   0.01749   0.02520   0.03238
 Alpha virt. eigenvalues --    0.04322   0.04600   0.04765   0.06791   0.07089
 Alpha virt. eigenvalues --    0.07479   0.07514   0.09502   0.09746   0.11468

 Mulliken charges:
               1
     1  C   -0.024764
     2  C   -0.370518
     3  C   -0.477319
     4  C   -1.214218
     5  C    1.764971
     6  C   -0.807404
     7  N   -0.341811
     8  C    0.001776
     9  C   -0.221332
    10  H    0.447259
    11  H    0.237599
    12  H    0.236043
    13  H    0.190630
    14  H    0.193299
    15  H    0.188574
    16  H    0.197214
 Sum of Mulliken charges =  -0.00000

 Dipole moment (field-independent basis, Debye):
    X=              4.9136    Y=             -1.1719    Z=              0.0000  Tot=              5.0514
 Quadrupole moment (field-independent basis, Debye-Ang):
   XX=            -43.4199   YY=            -46.2540   ZZ=            -60.1154
   XY=             -2.2138   XZ=              0.0004   YZ=             -0.0004

 Normal termination of Gaussian 16 at Mon Jun 14 10:59:57 2021.
