 Gaussian 16, Revision C.01,
 Gaussian 16:  AS64L-G16RevC.01  3-Jul-2019

 ------------------------------------------------------------
 # td= (nstates=6, root=2) WB97XD/6-31+G* Opt density=current
 ------------------------------------------------------------

 -----------------
 FuncsWB97XD-V-2nd
 -----------------
 Symbolic Z-matrix:
 Charge =  0 Multiplicity = 1

 SCF Done:  E(RwB97XD) =  -363.703484374     A.U. after   15 cycles
 Total Energy, E(TD-HF/TD-DFT) =  -363.514858750
 SCF Done:  E(RwB97XD) =  -363.696901992     A.U. after   14 cycles
 Total Energy, E(TD-HF/TD-DFT) =  -363.524514484
 SCF Done:  E(RwB97XD) =  -363.691138134     A.U. after   15 cycles
 Total Energy, E(TD-HF/TD-DFT) =  -363.526504277
 SCF Done:  E(RwB97XD) =  -363.691628680     A.U. after   13 cycles
 Total Energy, E(TD-HF/TD-DFT) =  -363.526723292
 SCF Done:  E(RwB97XD) =  -363.692000140     A.U. after   12 cycles
 Total Energy, E(TD-HF/TD-DFT) =  -363.526766836
 SCF Done:  E(RwB97XD) =  -363.692207726     A.U. after   11 cycles

 Excitation energies and oscillator strengths:

 Excited State   1:      Singlet-A      4.9515 eV  250.40 nm  f=0.0119  <S**2>=0.000
      30 -> 32         0.55343
      31 -> 36        -0.40777

 Excited State   2:      Singlet-A      4.5017 eV  275.41 nm  f=0.1609  <S**2>=0.000
      30 -> 36         0.11683
      31 -> 32         0.68802
 This state for optimization and/or second-order correction.
 Total Energy, E(TD-HF/TD-DFT) =  -363.526771558
 Copying the excited state density for this state as the 1-particle RhoCI density.

 Excited State   3:      Singlet-A      5.2951 eV  234.15 nm  f=0.0049  <S**2>=0.000
      31 -> 33         0.67595
      31 -> 40        -0.11100

 Excited State   4:      Singlet-A      5.9431 eV  208.62 nm  f=0.0034  <S**2>=0.000
      31 -> 34         0.57359
      31 -> 35        -0.33202
      31 -> 38        -0.10631

 Excited State   5:      Singlet-A      5.9978 eV  206.72 nm  f=0.0026  <S**2>=0.000
      31 -> 34         0.32591
      31 -> 35         0.54844
      31 -> 37         0.15601
      31 -> 40         0.10195
      31 -> 43         0.14167

 Excited State   6:      Singlet-A      6.0589 eV  204.63 nm  f=0.5752  <S**2>=0.000
      30 -> 32         0.36819
      31 -> 36         0.54430
      31 -> 39         0.19481

 Optimization completed.
    -- Stationary point found.

                         Standard orientation:
 ---------------------------------------------------------------------
 Center     Atomic      Atomic             Coordinates (Angstroms)
 Number     Number       Type             X           Y           Z
 ---------------------------------------------------------------------
      1          6           0       -2.193870    0.644376   -0.000086
      2          6           0       -2.140306   -0.734437   -0.000026
      3          6           0       -0.878960   -1.457264    0.000066
      4          6           0        0.257066   -0.656636    0.000061
      5          6           0        0.234366    0.753677    0.000003
      6          6           0       -1.017549    1.445645   -0.000049
      7          7           0        1.606787   -1.037773    0.000079
      8          6           0        1.574948    1.187102    0.000017
      9          6           0        2.419839    0.033298   -0.000070
     10          1           0        1.921277   -1.997838    0.000284
     11          1           0        1.934163    2.207696   -0.000055
     12          1           0        3.495644   -0.054299   -0.000153
     13          1           0       -3.062167   -1.308713   -0.000040
     14          1           0       -0.843616   -2.540769    0.000066
     15          1           0       -3.163247    1.134746   -0.000133
     16          1           0       -1.062766    2.529018   -0.000027
 ---------------------------------------------------------------------

 The electronic state is 1-A.
 Alpha  occ. eigenvalues --  -14.50613 -10.34271 -10.33634 -10.31263 -10.30619
 Alpha  occ. eigenvalues --  -10.30346 -10.30188 -10.29842 -10.29011  -1.08954
 Alpha  occ. eigenvalues --   -0.93898  -0.87827  -0.84108  -0.80636  -0.72453
 Alpha  occ. eigenvalues --   -0.69158  -0.67127  -0.63238  -0.57422  -0.56181
 Alpha  occ. eigenvalues --   -0.52569  -0.51905  -0.51457  -0.48885  -0.47765
 Alpha  occ. eigenvalues --   -0.43127  -0.42803  -0.42149  -0.35596  -0.30742
 Alpha  occ. eigenvalues --   -0.26607
 Alpha virt. eigenvalues --    0.03621   0.05664   0.07511   0.08054   0.08771
 Alpha virt. eigenvalues --    0.09240   0.09624   0.10971   0.11689   0.12062
 Alpha virt. eigenvalues --    0.12084   0.12645   0.14615   0.14911   0.16014

 Mulliken charges:
               1
     1  C   -0.022845
     2  C   -0.387663
     3  C   -0.311337
     4  C   -1.034239
     5  C    1.323771
     6  C   -0.728892
     7  N   -0.395054
     8  C    0.098011
     9  C   -0.283038
    10  H    0.452001
    11  H    0.240982
    12  H    0.242919
    13  H    0.199114
    14  H    0.202801
    15  H    0.196828
    16  H    0.206643
 Sum of Mulliken charges =   0.00000

 Dipole moment (field-independent basis, Debye):
    X=              4.1797    Y=             -1.4303    Z=              0.0003  Tot=              4.4177
 Quadrupole moment (field-independent basis, Debye-Ang):
   XX=            -44.1691   YY=            -45.8738   ZZ=            -60.4829
   XY=             -2.4331   XZ=              0.0005   YZ=             -0.0008

 Normal termination of Gaussian 16 at Wed Jun 23 12:54:28 2021.
