 Gaussian 16, Revision C.01,
 Gaussian 16:  AS64L-G16RevC.01  3-Jul-2019

 --------------------------------------------------------------
 # td= (nstates=6, root=3) MPW1PW91/6-31+G* Opt density=current
 --------------------------------------------------------------

 -------------------
 FuncsMPW1PW91-V-3rd
 -------------------
 Symbolic Z-matrix:
 Charge =  0 Multiplicity = 1

 SCF Done:  E(RmPW1PW91) =  -363.747106292     A.U. after   14 cycles
 Total Energy, E(TD-HF/TD-DFT) =  -363.562374814
 SCF Done:  E(RmPW1PW91) =  -363.741437664     A.U. after   13 cycles
 Total Energy, E(TD-HF/TD-DFT) =  -363.570834617
 SCF Done:  E(RmPW1PW91) =  -363.737036960     A.U. after   13 cycles
 Total Energy, E(TD-HF/TD-DFT) =  -363.571921132
 SCF Done:  E(RmPW1PW91) =  -363.736449965     A.U. after   12 cycles
 Total Energy, E(TD-HF/TD-DFT) =  -363.571997330
 SCF Done:  E(RmPW1PW91) =  -363.736138371     A.U. after   11 cycles

 Excitation energies and oscillator strengths:

 Excited State   1:      Singlet-A      4.9730 eV  249.32 nm  f=0.0041  <S**2>=0.000
      30 -> 32         0.50649
      31 -> 35        -0.47857

 Excited State   2:      Singlet-A      4.5120 eV  274.79 nm  f=0.1337  <S**2>=0.000
      30 -> 35         0.12287
      31 -> 32         0.67863
      31 -> 35        -0.10415

 Excited State   3:      Singlet-A      4.4662 eV  277.61 nm  f=0.0015  <S**2>=0.000
      31 -> 33         0.70389
 This state for optimization and/or second-order correction.
 Total Energy, E(TD-HF/TD-DFT) =  -363.572009057
 Copying the excited state density for this state as the 1-particle RhoCI density.

 Excited State   4:      Singlet-A      5.2592 eV  235.75 nm  f=0.0000  <S**2>=0.000
      31 -> 34         0.70021

 Excited State   5:      Singlet-A      5.3815 eV  230.39 nm  f=0.0040  <S**2>=0.000
      31 -> 36        -0.69635

 Excited State   6:      Singlet-A      5.5342 eV  224.03 nm  f=0.0008  <S**2>=0.000
      30 -> 33         0.70057

 Optimization completed.
    -- Stationary point found.

                         Standard orientation:
 ---------------------------------------------------------------------
 Center     Atomic      Atomic             Coordinates (Angstroms)
 Number     Number       Type             X           Y           Z
 ---------------------------------------------------------------------
      1          6           0       -2.183559    0.636567    0.000724
      2          6           0       -2.097952   -0.759502    0.000546
      3          6           0       -0.860641   -1.438794   -0.000196
      4          6           0        0.273657   -0.664029   -0.000525
      5          6           0        0.217805    0.760934   -0.000004
      6          6           0       -1.032889    1.414541    0.000571
      7          7           0        1.616887   -1.025928   -0.000659
      8          6           0        1.545344    1.214825   -0.000849
      9          6           0        2.368651    0.046885    0.000265
     10          1           0        2.013960   -2.015861    0.001620
     11          1           0        1.904951    2.234990   -0.001031
     12          1           0        3.452044   -0.049338    0.001718
     13          1           0       -3.009954   -1.346570    0.000440
     14          1           0       -0.813053   -2.519826   -0.001567
     15          1           0       -3.158020    1.112066    0.000582
     16          1           0       -1.090639    2.497474   -0.000337
 ---------------------------------------------------------------------

 The electronic state is 1-A.
 Alpha  occ. eigenvalues --  -14.47591 -10.28773 -10.28250 -10.25431 -10.24886
 Alpha  occ. eigenvalues --  -10.24714 -10.24678 -10.24372 -10.23835  -1.02667
 Alpha  occ. eigenvalues --   -0.86917  -0.80379  -0.76856  -0.73172  -0.64968
 Alpha  occ. eigenvalues --   -0.61534  -0.60133  -0.56013  -0.50049  -0.48853
 Alpha  occ. eigenvalues --   -0.45763  -0.44851  -0.44694  -0.41857  -0.40365
 Alpha  occ. eigenvalues --   -0.36813  -0.35294  -0.35134  -0.29037  -0.24352
 Alpha  occ. eigenvalues --   -0.20524
 Alpha virt. eigenvalues --   -0.01502  -0.00539   0.02027   0.02523   0.02650
 Alpha virt. eigenvalues --    0.04097   0.04213   0.05066   0.06266   0.06418
 Alpha virt. eigenvalues --    0.06820   0.07056   0.09035   0.09223   0.11060

 Mulliken charges:
               1
     1  C    0.047140
     2  C   -0.613616
     3  C    1.807363
     4  C   -2.552378
     5  C    0.864284
     6  C   -0.539837
     7  N    1.067507
     8  C   -4.997843
     9  C    3.021750
    10  H    0.319061
    11  H    0.260199
    12  H    0.308988
    13  H    0.242394
    14  H    0.283581
    15  H    0.234623
    16  H    0.246783
 Sum of Mulliken charges =  -0.00000

 Dipole moment (field-independent basis, Debye):
    X=             -6.5398    Y=              6.6375    Z=             -0.0505  Tot=              9.3182
 Quadrupole moment (field-independent basis, Debye-Ang):
   XX=            -65.5537   YY=            -63.9851   ZZ=            -64.1694
   XY=             18.2058   XZ=             -0.1192   YZ=              0.0800

 Normal termination of Gaussian 16 at Mon Jun 14 12:33:42 2021.
