 Gaussian 16, Revision C.01,
 Gaussian 16:  AS64L-G16RevC.01  3-Jul-2019

 --------------------------------------------------------------
 # td= (nstates=6, root=1) SOGGA11X/6-31+G* Opt density=current
 --------------------------------------------------------------

 -------------------
 FuncsSOGGA11X-V-1st
 -------------------
 Symbolic Z-matrix:
 Charge =  0 Multiplicity = 1

 SCF Done:  E(RSOGGA11X) =  -363.729258520     A.U. after   15 cycles
 Total Energy, E(TD-HF/TD-DFT) =  -363.542725968
 SCF Done:  E(RSOGGA11X) =  -363.722516731     A.U. after   14 cycles
 Total Energy, E(TD-HF/TD-DFT) =  -363.553322863
 SCF Done:  E(RSOGGA11X) =  -363.718716913     A.U. after   13 cycles
 Total Energy, E(TD-HF/TD-DFT) =  -363.554476168
 SCF Done:  E(RSOGGA11X) =  -363.718433674     A.U. after   11 cycles
 Total Energy, E(TD-HF/TD-DFT) =  -363.554563012
 SCF Done:  E(RSOGGA11X) =  -363.718515954     A.U. after   11 cycles
 Total Energy, E(TD-HF/TD-DFT) =  -363.554579649
 SCF Done:  E(RSOGGA11X) =  -363.718642099     A.U. after   10 cycles

 Excitation energies and oscillator strengths:

 Excited State   1:      Singlet-A      4.4643 eV  277.72 nm  f=0.1527  <S**2>=0.000
      30 -> 36         0.11082
      31 -> 32         0.68887
 This state for optimization and/or second-order correction.
 Total Energy, E(TD-HF/TD-DFT) =  -363.554581365
 Copying the excited state density for this state as the 1-particle RhoCI density.

 Excited State   2:      Singlet-A      4.7642 eV  260.24 nm  f=0.0025  <S**2>=0.000
      31 -> 33         0.69910

 Excited State   3:      Singlet-A      4.9994 eV  248.00 nm  f=0.0108  <S**2>=0.000
      30 -> 32         0.55204
      31 -> 36        -0.41658

 Excited State   4:      Singlet-A      5.4242 eV  228.57 nm  f=0.0005  <S**2>=0.000
      31 -> 34         0.68628

 Excited State   5:      Singlet-A      5.5223 eV  224.52 nm  f=0.0023  <S**2>=0.000
      31 -> 35         0.67893
      31 -> 37         0.12329

 Excited State   6:      Singlet-A      5.8670 eV  211.33 nm  f=0.0017  <S**2>=0.000
      30 -> 33         0.66592
      31 -> 37         0.14655

 Optimization completed.
    -- Stationary point found.

                         Standard orientation:
 ---------------------------------------------------------------------
 Center     Atomic      Atomic             Coordinates (Angstroms)
 Number     Number       Type             X           Y           Z
 ---------------------------------------------------------------------
      1          6           0       -2.196924    0.647090   -0.000017
      2          6           0       -2.142090   -0.735965    0.000026
      3          6           0       -0.883666   -1.460940    0.000054
      4          6           0        0.258303   -0.656546    0.000018
      5          6           0        0.233617    0.754289   -0.000043
      6          6           0       -1.019209    1.449359   -0.000041
      7          7           0        1.607801   -1.037143    0.000003
      8          6           0        1.580505    1.188089   -0.000109
      9          6           0        2.423985    0.030206    0.000098
     10          1           0        1.922428   -1.996956    0.000186
     11          1           0        1.943079    2.208279   -0.000190
     12          1           0        3.500107   -0.060938    0.000152
     13          1           0       -3.065812   -1.308400    0.000038
     14          1           0       -0.849324   -2.545065   -0.000026
     15          1           0       -3.167425    1.136345   -0.000041
     16          1           0       -1.064785    2.533251   -0.000062
 ---------------------------------------------------------------------

 The electronic state is 1-A.
 Alpha  occ. eigenvalues --  -14.71341 -10.50106 -10.49416 -10.47079 -10.46441
 Alpha  occ. eigenvalues --  -10.46087 -10.45939 -10.45579 -10.44847  -1.09104
 Alpha  occ. eigenvalues --   -0.93066  -0.86624  -0.82762  -0.79147  -0.70211
 Alpha  occ. eigenvalues --   -0.66689  -0.64633  -0.60324  -0.54459  -0.53028
 Alpha  occ. eigenvalues --   -0.49238  -0.48630  -0.47768  -0.45539  -0.44416
 Alpha  occ. eigenvalues --   -0.39759  -0.39323  -0.37975  -0.31335  -0.26618
 Alpha  occ. eigenvalues --   -0.22599
 Alpha virt. eigenvalues --   -0.00820   0.00425   0.02477   0.03042   0.04206
 Alpha virt. eigenvalues --    0.04326   0.04544   0.06139   0.06659   0.07068
 Alpha virt. eigenvalues --    0.07154   0.07575   0.09660   0.09969   0.11168

 Mulliken charges:
               1
     1  C   -0.097653
     2  C   -0.380066
     3  C   -0.214736
     4  C   -1.078920
     5  C    1.181507
     6  C   -0.642623
     7  N   -0.439204
     8  C    0.038849
     9  C   -0.246602
    10  H    0.469924
    11  H    0.262187
    12  H    0.260359
    13  H    0.218078
    14  H    0.225359
    15  H    0.216397
    16  H    0.227145
 Sum of Mulliken charges =  -0.00000

 Dipole moment (field-independent basis, Debye):
    X=              4.1916    Y=             -1.2886    Z=             -0.0005  Tot=              4.3852
 Quadrupole moment (field-independent basis, Debye-Ang):
   XX=            -44.5779   YY=            -46.5974   ZZ=            -61.6621
   XY=             -2.1975   XZ=             -0.0003   YZ=              0.0001

 Normal termination of Gaussian 16 at Wed Jun 16 10:43:05 2021.
