 Gaussian 16, Revision C.01,
 Gaussian 16:  AS64L-G16RevC.01  3-Jul-2019

 ------------------------------------------------------------
 # td= (nstates=6, root=3) WB97XD/6-31+G* Opt density=current
 ------------------------------------------------------------

 -----------------
 FuncsWB97XD-V-3rd
 -----------------
 Symbolic Z-matrix:
 Charge =  0 Multiplicity = 1

 SCF Done:  E(RwB97XD) =  -363.703484374     A.U. after   15 cycles
 Total Energy, E(TD-HF/TD-DFT) =  -363.495249348
 SCF Done:  E(RwB97XD) =  -363.698108840     A.U. after   15 cycles
 Total Energy, E(TD-HF/TD-DFT) =  -363.502604401
 SCF Done:  E(RwB97XD) =  -363.694525133     A.U. after   14 cycles
 Total Energy, E(TD-HF/TD-DFT) =  -363.503491798
 SCF Done:  E(RwB97XD) =  -363.694265944     A.U. after   12 cycles
 Total Energy, E(TD-HF/TD-DFT) =  -363.503550284
 SCF Done:  E(RwB97XD) =  -363.694112586     A.U. after   12 cycles

 Excitation energies and oscillator strengths:

 Excited State   1:      Singlet-A      4.7356 eV  261.81 nm  f=0.1608  <S**2>=0.000
      30 -> 36         0.14008
      31 -> 32         0.67914

 Excited State   2:      Singlet-A      5.0950 eV  243.34 nm  f=0.0058  <S**2>=0.000
      30 -> 32         0.51488
      31 -> 36        -0.45151

 Excited State   3:      Singlet-A      5.1852 eV  239.11 nm  f=0.0037  <S**2>=0.000
      31 -> 33         0.68103
 This state for optimization and/or second-order correction.
 Total Energy, E(TD-HF/TD-DFT) =  -363.503561547
 Copying the excited state density for this state as the 1-particle RhoCI density.

 Excited State   4:      Singlet-A      5.9480 eV  208.45 nm  f=0.0051  <S**2>=0.000
      31 -> 34         0.53227
      31 -> 35        -0.39687
      31 -> 38        -0.11406

 Excited State   5:      Singlet-A      5.9954 eV  206.80 nm  f=0.0052  <S**2>=0.000
      31 -> 34         0.39118
      31 -> 35         0.48572
      31 -> 37         0.17354
      31 -> 40        -0.15142
      31 -> 43         0.15644

 Excited State   6:      Singlet-A      6.1439 eV  201.80 nm  f=0.5660  <S**2>=0.000
      30 -> 32         0.41783
      31 -> 36         0.50243
      31 -> 39         0.17926
      31 -> 42        -0.10930

 Optimization completed.
    -- Stationary point found.

                         Standard orientation:
 ---------------------------------------------------------------------
 Center     Atomic      Atomic             Coordinates (Angstroms)
 Number     Number       Type             X           Y           Z
 ---------------------------------------------------------------------
      1          6           0       -2.180022    0.642761    0.000066
      2          6           0       -2.099115   -0.756279    0.000037
      3          6           0       -0.869102   -1.438596   -0.000047
      4          6           0        0.265496   -0.661476   -0.000096
      5          6           0        0.215920    0.757282   -0.000023
      6          6           0       -1.028297    1.416524    0.000188
      7          7           0        1.616152   -1.027730   -0.000034
      8          6           0        1.552243    1.206400   -0.000464
      9          6           0        2.375273    0.043197    0.000345
     10          1           0        1.995366   -2.009732    0.000132
     11          1           0        1.914210    2.226971   -0.000634
     12          1           0        3.456484   -0.044746    0.000631
     13          1           0       -3.014927   -1.338550    0.000020
     14          1           0       -0.823137   -2.519736   -0.000083
     15          1           0       -3.153705    1.120937    0.000021
     16          1           0       -1.081734    2.500082    0.000107
 ---------------------------------------------------------------------

 The electronic state is 1-A.
 Alpha  occ. eigenvalues --  -14.51204 -10.33825 -10.33283 -10.30534 -10.29865
 Alpha  occ. eigenvalues --  -10.29798 -10.29787 -10.29476 -10.28729  -1.09694
 Alpha  occ. eigenvalues --   -0.94536  -0.87838  -0.84343  -0.80778  -0.72310
 Alpha  occ. eigenvalues --   -0.68894  -0.67509  -0.63389  -0.57162  -0.56157
 Alpha  occ. eigenvalues --   -0.52848  -0.52018  -0.51964  -0.48820  -0.47327
 Alpha  occ. eigenvalues --   -0.43728  -0.42653  -0.41983  -0.35863  -0.30625
 Alpha  occ. eigenvalues --   -0.26637
 Alpha virt. eigenvalues --    0.04647   0.05359   0.07523   0.08096   0.08778
 Alpha virt. eigenvalues --    0.09290   0.09681   0.11131   0.11725   0.12123
 Alpha virt. eigenvalues --    0.12128   0.12521   0.14630   0.15010   0.16040

 Mulliken charges:
               1
     1  C   -0.225540
     2  C   -0.541710
     3  C   -0.172070
     4  C   -0.603997
     5  C    0.858562
     6  C    0.025114
     7  N    0.880092
     8  C   -4.629841
     9  C    2.492937
    10  H    0.356361
    11  H    0.270290
    12  H    0.297803
    13  H    0.239382
    14  H    0.278116
    15  H    0.230479
    16  H    0.244023
 Sum of Mulliken charges =  -0.00000

 Dipole moment (field-independent basis, Debye):
    X=             -6.1938    Y=              5.7641    Z=             -0.0009  Tot=              8.4609
 Quadrupole moment (field-independent basis, Debye-Ang):
   XX=            -64.7729   YY=            -61.7160   ZZ=            -66.2006
   XY=             15.6743   XZ=             -0.0060   YZ=              0.0005

 Normal termination of Gaussian 16 at Wed Jun 23 12:48:27 2021.
