 Gaussian 16, Revision C.01,
 Gaussian 16:  AS64L-G16RevC.01  3-Jul-2019

 -----------------------------------------------------------
 # td= (nstates=6, root=1) WB97X/6-31+G* Opt density=current
 -----------------------------------------------------------

 ----------
 FuncsWB97X
 ----------
 Symbolic Z-matrix:
 Charge =  0 Multiplicity = 1

 SCF Done:  E(RwB97X) =  -363.728590267     A.U. after   16 cycles
 Total Energy, E(TD-HF/TD-DFT) =  -363.540633085
 SCF Done:  E(RwB97X) =  -363.724158099     A.U. after   15 cycles
 Total Energy, E(TD-HF/TD-DFT) =  -363.545324233
 SCF Done:  E(RwB97X) =  -363.723270230     A.U. after   14 cycles
 Total Energy, E(TD-HF/TD-DFT) =  -363.545727683
 SCF Done:  E(RwB97X) =  -363.722946546     A.U. after   13 cycles
 Total Energy, E(TD-HF/TD-DFT) =  -363.545801712
 SCF Done:  E(RwB97X) =  -363.723026859     A.U. after   11 cycles
 Total Energy, E(TD-HF/TD-DFT) =  -363.545810274
 SCF Done:  E(RwB97X) =  -363.723102664     A.U. after   11 cycles
 Total Energy, E(TD-HF/TD-DFT) =  -363.545812503
 SCF Done:  E(RwB97X) =  -363.723124896     A.U. after   10 cycles
 Total Energy, E(TD-HF/TD-DFT) =  -363.545813008
 SCF Done:  E(RwB97X) =  -363.723121549     A.U. after    9 cycles

 Excitation energies and oscillator strengths:

 Excited State   1:      Singlet-A      4.8248 eV  256.97 nm  f=0.0661  <S**2>=0.000
      30 -> 32         0.49291
      30 -> 36        -0.13813
      31 -> 32        -0.39473
      31 -> 36        -0.24218
 This state for optimization and/or second-order correction.
 Total Energy, E(TD-HF/TD-DFT) =  -363.545813081
 Copying the excited state density for this state as the 1-particle RhoCI density.

 Excited State   2:      Singlet-A      5.1290 eV  241.73 nm  f=0.1098  <S**2>=0.000
      30 -> 32         0.35388
      30 -> 36         0.16979
      31 -> 32         0.53260
      31 -> 36        -0.22180

 Excited State   3:      Singlet-A      6.0173 eV  206.05 nm  f=0.0028  <S**2>=0.000
      31 -> 33        -0.63802
      31 -> 34         0.10704
      31 -> 40        -0.15170

 Excited State   4:      Singlet-A      6.3646 eV  194.80 nm  f=0.0095  <S**2>=0.000
      30 -> 33        -0.60862
      30 -> 40        -0.18071
      31 -> 34        -0.18493

 Excited State   5:      Singlet-A      6.3991 eV  193.75 nm  f=0.8606  <S**2>=0.000
      30 -> 32         0.32840
      31 -> 36         0.60179

 Excited State   6:      Singlet-A      6.5779 eV  188.49 nm  f=0.2304  <S**2>=0.000
      30 -> 36        -0.63167
      31 -> 32         0.21194
      31 -> 39        -0.17039

 Optimization completed.
    -- Stationary point found.

                         Standard orientation:
 ---------------------------------------------------------------------
 Center     Atomic      Atomic             Coordinates (Angstroms)
 Number     Number       Type             X           Y           Z
 ---------------------------------------------------------------------
      1          6           0       -2.148718    0.712121   -0.000043
      2          6           0       -2.172925   -0.701041    0.000019
      3          6           0       -0.962627   -1.440136    0.000008
      4          6           0        0.234671   -0.680854    0.000122
      5          6           0        0.275509    0.770264    0.000235
      6          6           0       -0.941556    1.475914   -0.000218
      7          7           0        1.518708   -1.095981   -0.000055
      8          6           0        1.663837    1.143647    0.000167
      9          6           0        2.414421    0.000284   -0.000129
     10          1           0        1.805013   -2.063970   -0.000660
     11          1           0        2.052081    2.154401    0.000362
     12          1           0        3.481972   -0.163662   -0.000100
     13          1           0       -3.127037   -1.218132    0.000209
     14          1           0       -0.948970   -2.525848    0.000131
     15          1           0       -3.095581    1.247171    0.000095
     16          1           0       -0.974109    2.560712   -0.000618
 ---------------------------------------------------------------------

 The electronic state is 1-A.
 Alpha  occ. eigenvalues --  -14.46272 -10.31403 -10.31146 -10.28226 -10.27960
 Alpha  occ. eigenvalues --  -10.27864 -10.27654 -10.27069 -10.26796  -1.11399
 Alpha  occ. eigenvalues --   -0.96322  -0.91596  -0.85707  -0.84759  -0.74851
 Alpha  occ. eigenvalues --   -0.71417  -0.69995  -0.65318  -0.60202  -0.58173
 Alpha  occ. eigenvalues --   -0.54174  -0.53849  -0.53783  -0.51893  -0.50124
 Alpha  occ. eigenvalues --   -0.45495  -0.43990  -0.43895  -0.38371  -0.30590
 Alpha  occ. eigenvalues --   -0.29451
 Alpha virt. eigenvalues --    0.05087   0.06660   0.08399   0.08773   0.09583
 Alpha virt. eigenvalues --    0.10066   0.10423   0.11913   0.12427   0.12903
 Alpha virt. eigenvalues --    0.12919   0.13384   0.15299   0.15958   0.16706

 Mulliken charges:
               1
     1  C    0.026870
     2  C   -0.446078
     3  C   -0.197891
     4  C   -0.647399
     5  C    0.904843
     6  C   -0.672308
     7  N   -0.517970
     8  C    0.175054
     9  C   -0.337008
    10  H    0.439999
    11  H    0.222923
    12  H    0.224752
    13  H    0.201905
    14  H    0.205660
    15  H    0.205596
    16  H    0.211051
 Sum of Mulliken charges =  -0.00000

 Dipole moment (field-independent basis, Debye):
    X=              1.8460    Y=             -1.1952    Z=             -0.0003  Tot=              2.1991
 Quadrupole moment (field-independent basis, Debye-Ang):
   XX=            -46.1388   YY=            -45.2237   ZZ=            -60.0443
   XY=             -4.0429   XZ=             -0.0018   YZ=              0.0012

 Normal termination of Gaussian 16 at Wed Jun  9 09:22:22 2021.
