 Gaussian 16, Revision C.01,
 Gaussian 16:  AS64L-G16RevC.01  3-Jul-2019

 --------------------------------------------------------------
 # td= (nstates=6, root=3) HSEH1PBE/6-31+G* Opt density=current
 --------------------------------------------------------------

 -------------------
 FuncsHSEH1PBE-V-3rd
 -------------------
 Symbolic Z-matrix:
 Charge =  0 Multiplicity = 1

 SCF Done:  E(RHSEH1PBE) =  -363.433772147     A.U. after   14 cycles
 Total Energy, E(TD-HF/TD-DFT) =  -363.246905799
 SCF Done:  E(RHSEH1PBE) =  -363.428071784     A.U. after   13 cycles
 Total Energy, E(TD-HF/TD-DFT) =  -363.255944818
 SCF Done:  E(RHSEH1PBE) =  -363.422552989     A.U. after   13 cycles
 Total Energy, E(TD-HF/TD-DFT) =  -363.257323720
 SCF Done:  E(RHSEH1PBE) =  -363.421210672     A.U. after   12 cycles
 Total Energy, E(TD-HF/TD-DFT) =  -363.257491622
 SCF Done:  E(RHSEH1PBE) =  -363.419798103     A.U. after   12 cycles
 Total Energy, E(TD-HF/TD-DFT) =  -363.257556896
 SCF Done:  E(RHSEH1PBE) =  -363.419213128     A.U. after   11 cycles
 Total Energy, E(TD-HF/TD-DFT) =  -363.257575320
 SCF Done:  E(RHSEH1PBE) =  -363.418786289     A.U. after   10 cycles
 Total Energy, E(TD-HF/TD-DFT) =  -363.257580577
 SCF Done:  E(RHSEH1PBE) =  -363.418399699     A.U. after   10 cycles
 Total Energy, E(TD-HF/TD-DFT) =  -363.257582475
 SCF Done:  E(RHSEH1PBE) =  -363.418165578     A.U. after   10 cycles
 Total Energy, E(TD-HF/TD-DFT) =  -363.257583194
 SCF Done:  E(RHSEH1PBE) =  -363.418131083     A.U. after    9 cycles
 Total Energy, E(TD-HF/TD-DFT) =  -363.257583410
 SCF Done:  E(RHSEH1PBE) =  -363.418168115     A.U. after    9 cycles
 Total Energy, E(TD-HF/TD-DFT) =  -363.257583671
 SCF Done:  E(RHSEH1PBE) =  -363.418242064     A.U. after   11 cycles
 Total Energy, E(TD-HF/TD-DFT) =  -363.257583843
 SCF Done:  E(RHSEH1PBE) =  -363.418211816     A.U. after    9 cycles

 Excitation energies and oscillator strengths:

 Excited State   1:      Singlet-A      4.9571 eV  250.11 nm  f=0.0045  <S**2>=0.000
      30 -> 32         0.50268
      31 -> 34        -0.48372

 Excited State   2:      Singlet-A      4.4829 eV  276.57 nm  f=0.1303  <S**2>=0.000
      30 -> 34         0.12118
      31 -> 32         0.67790
      31 -> 34        -0.10584

 Excited State   3:      Singlet-A      4.3709 eV  283.66 nm  f=0.0011  <S**2>=0.000
      31 -> 33         0.70496
 This state for optimization and/or second-order correction.
 Total Energy, E(TD-HF/TD-DFT) =  -363.257583894
 Copying the excited state density for this state as the 1-particle RhoCI density.

 Excited State   4:      Singlet-A      5.2587 eV  235.77 nm  f=0.0003  <S**2>=0.000
      31 -> 35         0.70246

 Excited State   5:      Singlet-A      5.4050 eV  229.39 nm  f=0.0063  <S**2>=0.000
      30 -> 33        -0.23102
      31 -> 36        -0.66015

 Excited State   6:      Singlet-A      5.4294 eV  228.36 nm  f=0.0000  <S**2>=0.000
      30 -> 33         0.66356
      31 -> 36        -0.22995

 Optimization completed.
    -- Stationary point found.

                         Standard orientation:
 ---------------------------------------------------------------------
 Center     Atomic      Atomic             Coordinates (Angstroms)
 Number     Number       Type             X           Y           Z
 ---------------------------------------------------------------------
      1          6           0       -2.186411    0.631262   -0.000074
      2          6           0       -2.096389   -0.765366   -0.000019
      3          6           0       -0.855729   -1.439383    0.000051
      4          6           0        0.277000   -0.660884    0.000029
      5          6           0        0.216212    0.765835   -0.000049
      6          6           0       -1.038389    1.414285   -0.000099
      7          7           0        1.617985   -1.023207    0.000092
      8          6           0        1.543447    1.220555    0.000018
      9          6           0        2.365784    0.049039    0.000040
     10          1           0        2.039184   -2.045277   -0.000018
     11          1           0        1.903031    2.242498   -0.000029
     12          1           0        3.451311   -0.051635   -0.000006
     13          1           0       -3.007917   -1.355373    0.000003
     14          1           0       -0.799719   -2.521662    0.000180
     15          1           0       -3.163728    1.103537   -0.000076
     16          1           0       -1.101208    2.498302   -0.000084
 ---------------------------------------------------------------------

 The electronic state is 1-A.
 Alpha  occ. eigenvalues --  -14.45144 -10.26059 -10.25528 -10.22714 -10.22211
 Alpha  occ. eigenvalues --  -10.22013 -10.21958 -10.21665 -10.21169  -1.00953
 Alpha  occ. eigenvalues --   -0.85134  -0.78549  -0.75108  -0.71355  -0.63236
 Alpha  occ. eigenvalues --   -0.59447  -0.58441  -0.54171  -0.48350  -0.47149
 Alpha  occ. eigenvalues --   -0.44033  -0.43156  -0.43115  -0.40186  -0.38696
 Alpha  occ. eigenvalues --   -0.35186  -0.33672  -0.33477  -0.27464  -0.22836
 Alpha  occ. eigenvalues --   -0.19011
 Alpha virt. eigenvalues --   -0.02752  -0.01666   0.01248   0.01314   0.02020
 Alpha virt. eigenvalues --    0.03478   0.03574   0.03951   0.05386   0.05719
 Alpha virt. eigenvalues --    0.06015   0.06446   0.08272   0.08471   0.10317

 Mulliken charges:
               1
     1  C    0.073683
     2  C   -0.504122
     3  C    2.095803
     4  C   -1.689859
     5  C   -0.306816
     6  C   -0.878618
     7  N    0.629840
     8  C   -2.894064
     9  C    1.643742
    10  H    0.301436
    11  H    0.254320
    12  H    0.287715
    13  H    0.237000
    14  H    0.280200
    15  H    0.229091
    16  H    0.240651
 Sum of Mulliken charges =  -0.00000

 Dipole moment (field-independent basis, Debye):
    X=             -6.2311    Y=              6.4834    Z=              0.0011  Tot=              8.9923
 Quadrupole moment (field-independent basis, Debye-Ang):
   XX=            -63.5811   YY=            -63.3507   ZZ=            -62.8683
   XY=             18.0169   XZ=              0.0024   YZ=             -0.0022

 Normal termination of Gaussian 16 at Mon Jun 14 11:55:36 2021.
