 Gaussian 16, Revision C.01,
 Gaussian 16:  AS64L-G16RevC.01  3-Jul-2019

 -----------------------------------------------------------
 # td= (nstates=6, root=2) WB97X/6-31+G* Opt density=current
 -----------------------------------------------------------

 ----------------
 FuncsWB97X-V-2nd
 ----------------
 Symbolic Z-matrix:
 Charge =  0 Multiplicity = 1

 SCF Done:  E(RwB97X) =  -363.729156871     A.U. after   16 cycles
 Total Energy, E(TD-HF/TD-DFT) =  -363.535584917
 SCF Done:  E(RwB97X) =  -363.721195808     A.U. after   15 cycles
 Total Energy, E(TD-HF/TD-DFT) =  -363.546226420
 SCF Done:  E(RwB97X) =  -363.717117494     A.U. after   14 cycles
 Total Energy, E(TD-HF/TD-DFT) =  -363.547263287
 SCF Done:  E(RwB97X) =  -363.716983557     A.U. after   12 cycles
 Total Energy, E(TD-HF/TD-DFT) =  -363.547301751
 SCF Done:  E(RwB97X) =  -363.717000508     A.U. after   11 cycles

 Excitation energies and oscillator strengths:

 Excited State   1:      Singlet-A      5.0060 eV  247.67 nm  f=0.0122  <S**2>=0.000
      30 -> 32         0.55173
      31 -> 36        -0.40041

 Excited State   2:      Singlet-A      4.6176 eV  268.50 nm  f=0.1978  <S**2>=0.000
      30 -> 36         0.12913
      31 -> 32         0.68630
 This state for optimization and/or second-order correction.
 Total Energy, E(TD-HF/TD-DFT) =  -363.547305206
 Copying the excited state density for this state as the 1-particle RhoCI density.

 Excited State   3:      Singlet-A      5.6193 eV  220.64 nm  f=0.0070  <S**2>=0.000
      31 -> 33         0.65327
      31 -> 40         0.15907

 Excited State   4:      Singlet-A      6.1853 eV  200.45 nm  f=0.5869  <S**2>=0.000
      30 -> 32         0.37616
      31 -> 36         0.54398
      31 -> 39         0.18130

 Excited State   5:      Singlet-A      6.2729 eV  197.65 nm  f=0.0026  <S**2>=0.000
      31 -> 34         0.61169
      31 -> 35        -0.21408
      31 -> 38        -0.10078

 Excited State   6:      Singlet-A      6.2926 eV  197.03 nm  f=0.0047  <S**2>=0.000
      31 -> 33         0.14879
      31 -> 34         0.18778
      31 -> 35         0.56827
      31 -> 37         0.14866
      31 -> 40        -0.16613
      31 -> 43         0.17377

 Optimization completed.
    -- Stationary point found.

                         Standard orientation:
 ---------------------------------------------------------------------
 Center     Atomic      Atomic             Coordinates (Angstroms)
 Number     Number       Type             X           Y           Z
 ---------------------------------------------------------------------
      1          6           0       -2.196314    0.641840   -0.000060
      2          6           0       -2.140902   -0.736751   -0.000012
      3          6           0       -0.872309   -1.455781    0.000053
      4          6           0        0.260801   -0.661470    0.000050
      5          6           0        0.237912    0.756842   -0.000011
      6          6           0       -1.023500    1.442442   -0.000040
      7          7           0        1.609636   -1.038819    0.000047
      8          6           0        1.569944    1.190865   -0.000029
      9          6           0        2.417382    0.038661   -0.000013
     10          1           0        1.929009   -1.997393    0.000291
     11          1           0        1.927810    2.213263   -0.000107
     12          1           0        3.494852   -0.046263   -0.000055
     13          1           0       -3.061083   -1.315361   -0.000019
     14          1           0       -0.837182   -2.540663    0.000041
     15          1           0       -3.167234    1.131328   -0.000094
     16          1           0       -1.071721    2.526940   -0.000013
 ---------------------------------------------------------------------

 The electronic state is 1-A.
 Alpha  occ. eigenvalues --  -14.46697 -10.31651 -10.30850 -10.28537 -10.27925
 Alpha  occ. eigenvalues --  -10.27664 -10.27488 -10.27098 -10.26233  -1.11960
 Alpha  occ. eigenvalues --   -0.97005  -0.90986  -0.87154  -0.83539  -0.75138
 Alpha  occ. eigenvalues --   -0.71876  -0.69765  -0.65675  -0.59782  -0.58512
 Alpha  occ. eigenvalues --   -0.54810  -0.54161  -0.54090  -0.51025  -0.49864
 Alpha  occ. eigenvalues --   -0.45105  -0.44627  -0.44461  -0.37629  -0.32239
 Alpha  occ. eigenvalues --   -0.27865
 Alpha virt. eigenvalues --    0.04550   0.06526   0.08358   0.08884   0.09875
 Alpha virt. eigenvalues --    0.10070   0.10472   0.11937   0.12385   0.12893
 Alpha virt. eigenvalues --    0.12925   0.13389   0.15351   0.15805   0.16780

 Mulliken charges:
               1
     1  C   -0.011275
     2  C   -0.374530
     3  C   -0.281710
     4  C   -0.774254
     5  C    0.993569
     6  C   -0.683033
     7  N   -0.459657
     8  C    0.182767
     9  C   -0.311786
    10  H    0.448892
    11  H    0.235145
    12  H    0.240201
    13  H    0.196320
    14  H    0.201652
    15  H    0.193712
    16  H    0.203986
 Sum of Mulliken charges =  -0.00000

 Dipole moment (field-independent basis, Debye):
    X=              3.8720    Y=             -1.5566    Z=              0.0002  Tot=              4.1731
 Quadrupole moment (field-independent basis, Debye-Ang):
   XX=            -44.6302   YY=            -46.0538   ZZ=            -60.6316
   XY=             -2.5493   XZ=              0.0006   YZ=             -0.0009

 Normal termination of Gaussian 16 at Wed Jun 16 07:53:11 2021.
