 Gaussian 16, Revision C.01,
 Gaussian 16:  ES64L-G16RevC.01  3-Jul-2019

 ------------------------------------------------------------
 # td= (nstates=6, root=1) LSDA/6-31+G(d) Opt density=current
 ------------------------------------------------------------

 ---------
 FuncsLSDA
 ---------
 Symbolic Z-matrix:
 Charge =  0 Multiplicity = 1

 SCF Done:  E(RS-VWN) =  -361.774587779     A.U. after   15 cycles
 Total Energy, E(TD-HF/TD-DFT) =  -361.612153826
 SCF Done:  E(RS-VWN) =  -361.768001836     A.U. after   13 cycles
 Total Energy, E(TD-HF/TD-DFT) =  -361.621641033
 SCF Done:  E(RS-VWN) =  -361.764348968     A.U. after   13 cycles
 Total Energy, E(TD-HF/TD-DFT) =  -361.622879884
 SCF Done:  E(RS-VWN) =  -361.763519285     A.U. after   12 cycles
 Total Energy, E(TD-HF/TD-DFT) =  -361.623014288
 SCF Done:  E(RS-VWN) =  -361.763490236     A.U. after   11 cycles
 Total Energy, E(TD-HF/TD-DFT) =  -361.623035501
 SCF Done:  E(RS-VWN) =  -361.763604673     A.U. after   10 cycles

 Excitation energies and oscillator strengths:

 Excited State   1:      Singlet-A      3.8250 eV  324.14 nm  f=0.0470  <S**2>=0.000
      29 -> 32         0.15861
      31 -> 32         0.67088
 This state for optimization and/or second-order correction.
 Total Energy, E(TD-HF/TD-DFT) =  -361.623037739
 Copying the excited state density for this state as the 1-particle RhoCI density.

 Excited State   2:      Singlet-A      4.5220 eV  274.18 nm  f=0.0011  <S**2>=0.000
      31 -> 34         0.70682

 Excited State   3:      Singlet-A      4.5938 eV  269.89 nm  f=0.0040  <S**2>=0.000
      30 -> 32         0.51936
      31 -> 33        -0.46275

 Excited State   4:      Singlet-A      5.0749 eV  244.31 nm  f=0.0001  <S**2>=0.000
      31 -> 35        -0.70681

 Excited State   5:      Singlet-A      5.3381 eV  232.26 nm  f=0.0025  <S**2>=0.000
      31 -> 37         0.70667

 Excited State   6:      Singlet-A      5.4768 eV  226.38 nm  f=0.1755  <S**2>=0.000
      29 -> 32         0.38248
      29 -> 36        -0.12518
      30 -> 32        -0.20667
      30 -> 33        -0.12441
      30 -> 36        -0.11847
      31 -> 32        -0.14376
      31 -> 33        -0.30916
      31 -> 36         0.37455

 Optimization completed.
    -- Stationary point found.

                         Standard orientation:
 ---------------------------------------------------------------------
 Center     Atomic      Atomic             Coordinates (Angstroms)
 Number     Number       Type             X           Y           Z
 ---------------------------------------------------------------------
      1          6           0       -2.179951    0.652714   -0.000045
      2          6           0       -2.127646   -0.730848   -0.000028
      3          6           0       -0.904132   -1.466464   -0.000019
      4          6           0        0.242733   -0.638520    0.000086
      5          6           0        0.216731    0.742845    0.000002
      6          6           0       -1.007490    1.459527   -0.000015
      7          7           0        1.602518   -1.031555    0.000138
      8          6           0        1.594007    1.172643   -0.000103
      9          6           0        2.424434    0.018302   -0.000011
     10          1           0        1.904708   -2.008269    0.000353
     11          1           0        1.957947    2.202705   -0.000312
     12          1           0        3.509680   -0.077868   -0.000012
     13          1           0       -3.070420   -1.291800   -0.000053
     14          1           0       -0.867195   -2.558055   -0.000114
     15          1           0       -3.161336    1.141433   -0.000063
     16          1           0       -1.043120    2.551546    0.000035
 ---------------------------------------------------------------------

 The electronic state is 1-A.
 Alpha  occ. eigenvalues --  -13.95018  -9.85172  -9.85066  -9.82863  -9.82092
 Alpha  occ. eigenvalues --   -9.81708  -9.81642  -9.81398  -9.80668  -0.92163
 Alpha  occ. eigenvalues --   -0.78168  -0.71989  -0.68751  -0.65891  -0.58842
 Alpha  occ. eigenvalues --   -0.55440  -0.53935  -0.50952  -0.45069  -0.44279
 Alpha  occ. eigenvalues --   -0.41407  -0.40752  -0.40322  -0.37614  -0.36739
 Alpha  occ. eigenvalues --   -0.33006  -0.32399  -0.32047  -0.26592  -0.23325
 Alpha  occ. eigenvalues --   -0.19757
 Alpha virt. eigenvalues --   -0.07685  -0.03198  -0.03153  -0.01087  -0.00779
 Alpha virt. eigenvalues --   -0.00070   0.01244   0.01559   0.02751   0.03528
 Alpha virt. eigenvalues --    0.03988   0.04288   0.05748   0.06229   0.07669

 Mulliken charges:
               1
     1  C   -0.034078
     2  C   -0.363312
     3  C   -0.386663
     4  C   -1.360939
     5  C    1.593280
     6  C   -0.638410
     7  N   -0.352213
     8  C    0.095258
     9  C   -0.224674
    10  H    0.441440
    11  H    0.240210
    12  H    0.239583
    13  H    0.185969
    14  H    0.188907
    15  H    0.184574
    16  H    0.191066
 Sum of Mulliken charges =  -0.00000

 Dipole moment (field-independent basis, Debye):
    X=              5.4212    Y=             -1.0735    Z=              0.0002  Tot=              5.5264
 Quadrupole moment (field-independent basis, Debye-Ang):
   XX=            -43.1322   YY=            -46.6792   ZZ=            -60.1344
   XY=             -2.1423   XZ=              0.0006   YZ=             -0.0011

 Normal termination of Gaussian 16 at Fri Jun 12 07:20:02 2020.
