 Gaussian 16, Revision C.01,
 Gaussian 16:  AS64L-G16RevC.01  3-Jul-2019

 ----------------------------------------------------------
 # td= (nstates=6, root=2) LSDA/6-31+G* Opt density=current
 ----------------------------------------------------------

 ---------------
 FuncsLSDA-V-2nd
 ---------------
 Symbolic Z-matrix:
 Charge =  0 Multiplicity = 1

 SCF Done:  E(RS-VWN) =  -361.774289017     A.U. after   15 cycles
 Total Energy, E(TD-HF/TD-DFT) =  -361.601084567
 SCF Done:  E(RS-VWN) =  -361.772028063     A.U. after   13 cycles
 Total Energy, E(TD-HF/TD-DFT) =  -361.606250550
 SCF Done:  E(RS-VWN) =  -361.771643576     A.U. after   12 cycles
 Total Energy, E(TD-HF/TD-DFT) =  -361.606395840
 SCF Done:  E(RS-VWN) =  -361.771550895     A.U. after   10 cycles
 Total Energy, E(TD-HF/TD-DFT) =  -361.606413705
 SCF Done:  E(RS-VWN) =  -361.771609990     A.U. after   10 cycles

 Excitation energies and oscillator strengths:

 Excited State   1:      Singlet-A      4.3195 eV  287.03 nm  f=0.0582  <S**2>=0.000
      29 -> 32         0.13199
      30 -> 33         0.11620
      31 -> 32         0.66265

 Excited State   2:      Singlet-A      4.4951 eV  275.82 nm  f=0.0212  <S**2>=0.000
      30 -> 32         0.55804
      31 -> 33        -0.42859
 This state for optimization and/or second-order correction.
 Total Energy, E(TD-HF/TD-DFT) =  -361.606416579
 Copying the excited state density for this state as the 1-particle RhoCI density.

 Excited State   3:      Singlet-A      4.7775 eV  259.52 nm  f=0.0014  <S**2>=0.000
      31 -> 34         0.70673

 Excited State   4:      Singlet-A      5.1717 eV  239.74 nm  f=0.0016  <S**2>=0.000
      30 -> 34         0.70667

 Excited State   5:      Singlet-A      5.3502 eV  231.74 nm  f=0.0000  <S**2>=0.000
      31 -> 35         0.70665

 Excited State   6:      Singlet-A      5.5552 eV  223.19 nm  f=0.0015  <S**2>=0.000
      31 -> 37         0.70661

 Optimization completed.
    -- Stationary point found.

                         Standard orientation:
 ---------------------------------------------------------------------
 Center     Atomic      Atomic             Coordinates (Angstroms)
 Number     Number       Type             X           Y           Z
 ---------------------------------------------------------------------
      1          6           0       -2.160367    0.699974   -0.000026
      2          6           0       -2.144324   -0.730972    0.000088
      3          6           0       -0.936417   -1.444643    0.000062
      4          6           0        0.246085   -0.679295   -0.000047
      5          6           0        0.259632    0.772991   -0.000024
      6          6           0       -0.962476    1.466034   -0.000074
      7          7           0        1.554846   -1.083985   -0.000147
      8          6           0        1.614471    1.166739    0.000064
      9          6           0        2.401144    0.015333    0.000029
     10          1           0        1.863108   -2.054731    0.000437
     11          1           0        1.994526    2.189783    0.000098
     12          1           0        3.483801   -0.106927   -0.000001
     13          1           0       -3.095164   -1.273352    0.000157
     14          1           0       -0.916737   -2.539599    0.000053
     15          1           0       -3.126388    1.215717   -0.000069
     16          1           0       -0.993561    2.560037   -0.000084
 ---------------------------------------------------------------------

 The electronic state is 1-A.
 Alpha  occ. eigenvalues --  -13.95339  -9.85302  -9.85239  -9.82353  -9.81817
 Alpha  occ. eigenvalues --   -9.81802  -9.81778  -9.81492  -9.80937  -0.91976
 Alpha  occ. eigenvalues --   -0.77350  -0.72897  -0.67836  -0.66353  -0.58525
 Alpha  occ. eigenvalues --   -0.55814  -0.54155  -0.50537  -0.45626  -0.43848
 Alpha  occ. eigenvalues --   -0.41179  -0.40326  -0.40243  -0.38192  -0.36983
 Alpha  occ. eigenvalues --   -0.33189  -0.31772  -0.31552  -0.27504  -0.22150
 Alpha  occ. eigenvalues --   -0.20651
 Alpha virt. eigenvalues --   -0.07170  -0.03772  -0.03112  -0.00966  -0.00538
 Alpha virt. eigenvalues --   -0.00175   0.01205   0.01561   0.02799   0.03531
 Alpha virt. eigenvalues --    0.04030   0.04273   0.05645   0.06329   0.07782

 Mulliken charges:
               1
     1  C   -0.010472
     2  C   -0.481895
     3  C   -0.101948
     4  C   -1.203962
     5  C    1.248752
     6  C   -0.625695
     7  N   -0.408724
     8  C    0.246552
     9  C   -0.331822
    10  H    0.424514
    11  H    0.217030
    12  H    0.222425
    13  H    0.199873
    14  H    0.200471
    15  H    0.200024
    16  H    0.204876
 Sum of Mulliken charges =  -0.00000

 Dipole moment (field-independent basis, Debye):
    X=              2.0954    Y=             -1.3803    Z=              0.0005  Tot=              2.5091
 Quadrupole moment (field-independent basis, Debye-Ang):
   XX=            -45.8681   YY=            -45.2321   ZZ=            -59.9564
   XY=             -3.1525   XZ=              0.0012   YZ=             -0.0015

 Normal termination of Gaussian 16 at Wed Jun 23 07:44:31 2021.
