 Gaussian 16, Revision C.01,
 Gaussian 16:  ES64L-G16RevC.01  3-Jul-2019

 -----------------------------------------------------------
 # td= (nstates=6, root=2) APFD/6-31G(d) Opt density=current
 -----------------------------------------------------------

 ------------
 FuncsAPFD2nd
 ------------
 Symbolic Z-matrix:
 Charge =  0 Multiplicity = 1

 SCF Done:  E(RAPFD) =  -363.518094167     A.U. after   14 cycles
 Total Energy, E(TD-HF/TD-DFT) =  -363.331690126
 SCF Done:  E(RAPFD) =  -363.513827024     A.U. after   12 cycles
 Total Energy, E(TD-HF/TD-DFT) =  -363.334931351
 SCF Done:  E(RAPFD) =  -363.512453298     A.U. after   12 cycles
 Total Energy, E(TD-HF/TD-DFT) =  -363.337329640
 SCF Done:  E(RAPFD) =  -363.503998958     A.U. after   12 cycles
 Total Energy, E(TD-HF/TD-DFT) =  -363.337059043
 SCF Done:  E(RAPFD) =  -363.511396985     A.U. after   11 cycles
 Total Energy, E(TD-HF/TD-DFT) =  -363.339531535
 SCF Done:  E(RAPFD) =  -363.512706660     A.U. after   12 cycles
 Total Energy, E(TD-HF/TD-DFT) =  -363.341134240
 SCF Done:  E(RAPFD) =  -363.508959644     A.U. after   12 cycles
 Total Energy, E(TD-HF/TD-DFT) =  -363.342685731
 SCF Done:  E(RAPFD) =  -363.508435544     A.U. after   11 cycles
 Total Energy, E(TD-HF/TD-DFT) =  -363.343886611
 SCF Done:  E(RAPFD) =  -363.499053426     A.U. after   12 cycles
 Total Energy, E(TD-HF/TD-DFT) =  -363.344403937
 SCF Done:  E(RAPFD) =  -363.505410394     A.U. after   11 cycles
 Total Energy, E(TD-HF/TD-DFT) =  -363.345550473
 SCF Done:  E(RAPFD) =  -363.501437776     A.U. after   13 cycles
 Total Energy, E(TD-HF/TD-DFT) =  -363.332884316
 SCF Done:  E(RAPFD) =  -363.512698533     A.U. after   12 cycles
 Total Energy, E(TD-HF/TD-DFT) =  -363.343545002
 SCF Done:  E(RAPFD) =  -363.507210948     A.U. after    7 cycles
 Total Energy, E(TD-HF/TD-DFT) =  -363.345655539
 SCF Done:  E(RAPFD) =  -363.506579995     A.U. after   11 cycles
 Total Energy, E(TD-HF/TD-DFT) =  -363.345805303
 SCF Done:  E(RAPFD) =  -363.506480339     A.U. after   10 cycles
 Total Energy, E(TD-HF/TD-DFT) =  -363.345818087
 SCF Done:  E(RAPFD) =  -363.506415256     A.U. after    9 cycles

 Excitation energies and oscillator strengths:

 Excited State   1:      Singlet-A      4.9532 eV  250.31 nm  f=0.0102  <S**2>=0.000
      30 -> 32         0.54541
      31 -> 33        -0.43678

 Excited State   2:      Singlet-A      4.3700 eV  283.72 nm  f=0.0903  <S**2>=0.000
      29 -> 32        -0.11971
      31 -> 32        -0.68198
 This state for optimization and/or second-order correction.
 Total Energy, E(TD-HF/TD-DFT) =  -363.345820315
 Copying the excited state density for this state as the 1-particle RhoCI density.

 Excited State   3:      Singlet-A      6.1009 eV  203.22 nm  f=0.3506  <S**2>=0.000
      29 -> 32        -0.37456
      30 -> 32         0.28510
      30 -> 33         0.15077
      31 -> 32         0.10863
      31 -> 33         0.43277
      31 -> 34        -0.21344

 Excited State   4:      Singlet-A      6.3634 eV  194.84 nm  f=0.3296  <S**2>=0.000
      29 -> 32        -0.43913
      29 -> 33        -0.13980
      30 -> 32        -0.30867
      30 -> 33         0.13495
      31 -> 33        -0.32752
      31 -> 34        -0.25074

 Excited State   5:      Singlet-A      6.6094 eV  187.59 nm  f=0.0002  <S**2>=0.000
      31 -> 35         0.70280

 Excited State   6:      Singlet-A      6.8354 eV  181.38 nm  f=0.0156  <S**2>=0.000
      29 -> 32        -0.25280
      29 -> 33         0.14080
      30 -> 33         0.27077
      31 -> 34         0.57045

 Optimization completed.
    -- Stationary point found.

                         Standard orientation:
 ---------------------------------------------------------------------
 Center     Atomic      Atomic             Coordinates (Angstroms)
 Number     Number       Type             X           Y           Z
 ---------------------------------------------------------------------
      1          6           0       -2.190723    0.649564   -0.000082
      2          6           0       -2.139747   -0.730945   -0.000071
      3          6           0       -0.895986   -1.462459   -0.000002
      4          6           0        0.248812   -0.647937    0.000121
      5          6           0        0.225018    0.748792    0.000089
      6          6           0       -1.010967    1.453321   -0.000001
      7          7           0        1.606502   -1.034004    0.000065
      8          6           0        1.589075    1.178651   -0.000004
      9          6           0        2.428793    0.023116   -0.000135
     10          1           0        1.911890   -1.997992    0.000805
     11          1           0        1.949636    2.199761   -0.000282
     12          1           0        3.503933   -0.071204   -0.000309
     13          1           0       -3.068524   -1.297213   -0.000130
     14          1           0       -0.857995   -2.545342   -0.000193
     15          1           0       -3.161218    1.140732   -0.000123
     16          1           0       -1.048884    2.536664    0.000298
 ---------------------------------------------------------------------

 The electronic state is 1-A.
 Alpha  occ. eigenvalues --  -14.41365 -10.24444 -10.24005 -10.21710 -10.20984
 Alpha  occ. eigenvalues --  -10.20664 -10.20484 -10.20269 -10.19392  -0.99576
 Alpha  occ. eigenvalues --   -0.84666  -0.78259  -0.74776  -0.71561  -0.63502
 Alpha  occ. eigenvalues --   -0.60002  -0.58164  -0.54565  -0.48717  -0.47615
 Alpha  occ. eigenvalues --   -0.43963  -0.43467  -0.42463  -0.40362  -0.39347
 Alpha  occ. eigenvalues --   -0.35161  -0.34407  -0.33617  -0.27195  -0.23219
 Alpha  occ. eigenvalues --   -0.19357
 Alpha virt. eigenvalues --   -0.01246   0.03852   0.07426   0.09115   0.11614
 Alpha virt. eigenvalues --    0.14691   0.15842   0.17929   0.18818   0.18860
 Alpha virt. eigenvalues --    0.19967   0.23401   0.25728   0.27889   0.29830

 Mulliken charges:
               1
     1  C   -0.175467
     2  C   -0.186064
     3  C   -0.267943
     4  C    0.278742
     5  C    0.098944
     6  C   -0.281146
     7  N   -0.637032
     8  C   -0.238971
     9  C    0.049926
    10  H    0.375889
    11  H    0.202758
    12  H    0.210468
    13  H    0.146551
    14  H    0.139086
    15  H    0.143777
    16  H    0.140481
 Sum of Mulliken charges =  -0.00000

 Dipole moment (field-independent basis, Debye):
    X=              4.8310    Y=             -1.2668    Z=              0.0008  Tot=              4.9943
 Quadrupole moment (field-independent basis, Debye-Ang):
   XX=            -41.6927   YY=            -44.1355   ZZ=            -57.1038
   XY=             -2.4396   XZ=              0.0014   YZ=             -0.0022

 Normal termination of Gaussian 16 at Mon Feb 15 05:18:20 2021.
