 Gaussian 16, Revision C.01,
 Gaussian 16:  AS64L-G16RevC.01  3-Jul-2019

 ----------------------------------------------------------------------
 # td= (nstates=6, root=3) B3LYP/6-31+G* Opt density=current EmpiricalD
 ispersion=GD3
 ----------------------------------------------------------------------

 ----------------
 FuncsB3LYP-V-3rd
 ----------------
 Symbolic Z-matrix:
 Charge =  0 Multiplicity = 1

 SCF Done:  E(RB3LYP) =  -363.840468596     A.U. after   14 cycles
 Total Energy, E(TD-HF/TD-DFT) =  -363.659864198
 SCF Done:  E(RB3LYP) =  -363.837319280     A.U. after   12 cycles
 Total Energy, E(TD-HF/TD-DFT) =  -363.666396004
 SCF Done:  E(RB3LYP) =  -363.836886498     A.U. after   11 cycles
 Total Energy, E(TD-HF/TD-DFT) =  -363.666513623
 SCF Done:  E(RB3LYP) =  -363.836211294     A.U. after   12 cycles
 Total Energy, E(TD-HF/TD-DFT) =  -363.666442257
 SCF Done:  E(RB3LYP) =  -363.836860333     A.U. after   10 cycles
 Total Energy, E(TD-HF/TD-DFT) =  -363.666558324
 SCF Done:  E(RB3LYP) =  -363.836802596     A.U. after   10 cycles

 Excitation energies and oscillator strengths:

 Excited State   1:      Singlet-A      4.5805 eV  270.68 nm  f=0.0828  <S**2>=0.000
      30 -> 32        -0.17335
      30 -> 34         0.15951
      31 -> 32         0.65160

 Excited State   2:      Singlet-A      4.7938 eV  258.64 nm  f=0.0026  <S**2>=0.000
      31 -> 33         0.70433

 Excited State   3:      Singlet-A      4.6325 eV  267.64 nm  f=0.0485  <S**2>=0.000
      30 -> 32         0.56883
      31 -> 32         0.15133
      31 -> 34        -0.38056
 This state for optimization and/or second-order correction.
 Total Energy, E(TD-HF/TD-DFT) =  -363.666560570
 Copying the excited state density for this state as the 1-particle RhoCI density.

 Excited State   4:      Singlet-A      5.1614 eV  240.21 nm  f=0.0017  <S**2>=0.000
      30 -> 33         0.70085

 Excited State   5:      Singlet-A      5.3891 eV  230.06 nm  f=0.0000  <S**2>=0.000
      31 -> 35         0.69869

 Excited State   6:      Singlet-A      5.4954 eV  225.61 nm  f=0.0016  <S**2>=0.000
      31 -> 36         0.69759

 Optimization completed.
    -- Stationary point found.

                         Standard orientation:
 ---------------------------------------------------------------------
 Center     Atomic      Atomic             Coordinates (Angstroms)
 Number     Number       Type             X           Y           Z
 ---------------------------------------------------------------------
      1          6           0       -2.168603    0.702733    0.000015
      2          6           0       -2.149958   -0.733015    0.000046
      3          6           0       -0.938997   -1.460163    0.000029
      4          6           0        0.250133   -0.686677   -0.000023
      5          6           0        0.259489    0.777234   -0.000023
      6          6           0       -0.973886    1.476647   -0.000016
      7          7           0        1.563480   -1.090420   -0.000127
      8          6           0        1.621046    1.172617   -0.000015
      9          6           0        2.409456    0.023556    0.000045
     10          1           0        1.873950   -2.050768    0.000536
     11          1           0        1.997867    2.186875   -0.000062
     12          1           0        3.483080   -0.096142    0.000041
     13          1           0       -3.094708   -1.268059    0.000056
     14          1           0       -0.919919   -2.544936   -0.000005
     15          1           0       -3.129989    1.207696    0.000010
     16          1           0       -1.006715    2.560687   -0.000034
 ---------------------------------------------------------------------

 The electronic state is 1-A.
 Alpha  occ. eigenvalues --  -14.39100 -10.23037 -10.23004 -10.19977 -10.19517
 Alpha  occ. eigenvalues --  -10.19456 -10.19416 -10.19031 -10.18465  -0.98199
 Alpha  occ. eigenvalues --   -0.83119  -0.78540  -0.73239  -0.71699  -0.62678
 Alpha  occ. eigenvalues --   -0.60065  -0.58128  -0.54033  -0.49142  -0.47212
 Alpha  occ. eigenvalues --   -0.43871  -0.43617  -0.42105  -0.41085  -0.39741
 Alpha  occ. eigenvalues --   -0.35922  -0.34267  -0.33041  -0.28403  -0.22244
 Alpha  occ. eigenvalues --   -0.20922
 Alpha virt. eigenvalues --   -0.02548  -0.00435   0.01127   0.01539   0.02068
 Alpha virt. eigenvalues --    0.03538   0.03699   0.04127   0.05769   0.06005
 Alpha virt. eigenvalues --    0.06412   0.06472   0.08335   0.08758   0.10526

 Mulliken charges:
               1
     1  C   -0.000909
     2  C   -0.399895
     3  C   -0.310748
     4  C   -0.760751
     5  C    1.260115
     6  C   -0.727315
     7  N   -0.467890
     8  C    0.152878
     9  C   -0.288457
    10  H    0.419132
    11  H    0.194651
    12  H    0.202564
    13  H    0.180778
    14  H    0.181270
    15  H    0.180490
    16  H    0.184087
 Sum of Mulliken charges =   0.00000

 Dipole moment (field-independent basis, Debye):
    X=              2.0621    Y=             -1.3878    Z=              0.0002  Tot=              2.4856
 Quadrupole moment (field-independent basis, Debye-Ang):
   XX=            -46.5042   YY=            -46.5085   ZZ=            -60.4136
   XY=             -2.9760   XZ=              0.0008   YZ=             -0.0012

 Normal termination of Gaussian 16 at Thu Jun 24 14:25:33 2021.
