 Gaussian 16, Revision C.01,
 Gaussian 16:  AS64L-G16RevC.01  3-Jul-2019

 -------------------------------------------------------------
 # td= (nstates=6, root=3) LC-BLYP/6-31+G* Opt density=current
 -------------------------------------------------------------

 ------------------
 FuncsLC-BLYP-V-3rd
 ------------------
 Symbolic Z-matrix:
 Charge =  0 Multiplicity = 1

 SCF Done:  E(RLC-B+HF-LYP) =  -362.735201154     A.U. after   16 cycles
 Total Energy, E(TD-HF/TD-DFT) =  -362.520816139
 SCF Done:  E(RLC-B+HF-LYP) =  -362.729966921     A.U. after   15 cycles
 Total Energy, E(TD-HF/TD-DFT) =  -362.528585023
 SCF Done:  E(RLC-B+HF-LYP) =  -362.726641966     A.U. after   14 cycles
 Total Energy, E(TD-HF/TD-DFT) =  -362.529425455
 SCF Done:  E(RLC-B+HF-LYP) =  -362.726279991     A.U. after   13 cycles
 Total Energy, E(TD-HF/TD-DFT) =  -362.529509678
 SCF Done:  E(RLC-B+HF-LYP) =  -362.726180509     A.U. after   13 cycles
 Total Energy, E(TD-HF/TD-DFT) =  -362.529534569
 SCF Done:  E(RLC-B+HF-LYP) =  -362.726257930     A.U. after   11 cycles
 Total Energy, E(TD-HF/TD-DFT) =  -362.529538376
 SCF Done:  E(RLC-B+HF-LYP) =  -362.726340036     A.U. after   12 cycles

 Excitation energies and oscillator strengths:

 Excited State   1:      Singlet-A      5.0100 eV  247.47 nm  f=0.2060  <S**2>=0.000
      30 -> 38         0.14256
      31 -> 33         0.66031

 Excited State   2:      Singlet-A      5.3132 eV  233.35 nm  f=0.0094  <S**2>=0.000
      30 -> 33         0.49489
      31 -> 33        -0.10520
      31 -> 38        -0.40642
      31 -> 43         0.11301

 Excited State   3:      Singlet-A      5.3552 eV  231.52 nm  f=0.0046  <S**2>=0.000
      29 -> 32         0.10309
      31 -> 32         0.66745
      31 -> 39         0.11564
 This state for optimization and/or second-order correction.
 Total Energy, E(TD-HF/TD-DFT) =  -362.529539568
 Copying the excited state density for this state as the 1-particle RhoCI density.

 Excited State   4:      Singlet-A      6.0963 eV  203.38 nm  f=0.0058  <S**2>=0.000
      31 -> 34         0.50139
      31 -> 35        -0.40966
      31 -> 36        -0.12118
      31 -> 37        -0.11767

 Excited State   5:      Singlet-A      6.1607 eV  201.25 nm  f=0.0045  <S**2>=0.000
      31 -> 34         0.40284
      31 -> 35         0.43653
      31 -> 36         0.17731
      31 -> 39        -0.17470
      31 -> 42         0.19262

 Excited State   6:      Singlet-A      6.4292 eV  192.85 nm  f=0.4595  <S**2>=0.000
      30 -> 33        -0.38792
      31 -> 38        -0.42815
      31 -> 40        -0.33408

 Optimization completed.
    -- Stationary point found.

                         Standard orientation:
 ---------------------------------------------------------------------
 Center     Atomic      Atomic             Coordinates (Angstroms)
 Number     Number       Type             X           Y           Z
 ---------------------------------------------------------------------
      1          6           0       -2.166386    0.639823   -0.000043
      2          6           0       -2.087027   -0.749804    0.000007
      3          6           0       -0.864891   -1.428251    0.000025
      4          6           0        0.260980   -0.657014   -0.000003
      5          6           0        0.215338    0.751073   -0.000019
      6          6           0       -1.021500    1.406325   -0.000024
      7          7           0        1.607161   -1.022449    0.000075
      8          6           0        1.544124    1.196198   -0.000081
      9          6           0        2.362217    0.042735    0.000048
     10          1           0        1.978480   -1.994144    0.000139
     11          1           0        1.905784    2.216608   -0.000138
     12          1           0        3.442955   -0.040372    0.000082
     13          1           0       -3.003230   -1.330467    0.000020
     14          1           0       -0.819015   -2.508949    0.000066
     15          1           0       -3.139063    1.118429   -0.000081
     16          1           0       -1.073174    2.489526   -0.000070
 ---------------------------------------------------------------------

 The electronic state is 1-A.
 Alpha  occ. eigenvalues --  -14.31365 -10.19696 -10.18892 -10.16242 -10.15496
 Alpha  occ. eigenvalues --  -10.15473 -10.15363 -10.15130 -10.14158  -1.16867
 Alpha  occ. eigenvalues --   -1.02198  -0.94928  -0.91115  -0.87383  -0.78423
 Alpha  occ. eigenvalues --   -0.74685  -0.73440  -0.69092  -0.62142  -0.61435
 Alpha  occ. eigenvalues --   -0.58106  -0.58047  -0.57024  -0.53613  -0.52034
 Alpha  occ. eigenvalues --   -0.48152  -0.47773  -0.46273  -0.39875  -0.33697
 Alpha  occ. eigenvalues --   -0.29323
 Alpha virt. eigenvalues --    0.04269   0.05932   0.06350   0.06918   0.08129
 Alpha virt. eigenvalues --    0.08504   0.10160   0.10672   0.10712   0.10966
 Alpha virt. eigenvalues --    0.11594   0.11734   0.13660   0.14743   0.14898

 Mulliken charges:
               1
     1  C   -0.184022
     2  C   -0.620713
     3  C   -0.586035
     4  C   -0.341559
     5  C    1.149311
     6  C   -0.229163
     7  N    0.753444
     8  C   -4.257463
     9  C    2.431561
    10  H    0.407987
    11  H    0.258525
    12  H    0.292810
    13  H    0.222551
    14  H    0.260472
    15  H    0.213215
    16  H    0.229080
 Sum of Mulliken charges =  -0.00000

 Dipole moment (field-independent basis, Debye):
    X=             -5.9210    Y=              5.1519    Z=             -0.0006  Tot=              7.8486
 Quadrupole moment (field-independent basis, Debye-Ang):
   XX=            -64.7628   YY=            -61.1710   ZZ=            -66.9559
   XY=             13.7149   XZ=             -0.0022   YZ=             -0.0008

 Normal termination of Gaussian 16 at Wed Jun 16 08:10:27 2021.
