 Gaussian 16, Revision C.01,
 Gaussian 16:  AS64L-G16RevC.01  3-Jul-2019

 -------------------------------------------------------------
 # td= (nstates=6, root=2) LC-BLYP/6-31+G* Opt density=current
 -------------------------------------------------------------

 ------------------
 FuncsLC-BLYP-V-2nd
 ------------------
 Symbolic Z-matrix:
 Charge =  0 Multiplicity = 1

 SCF Done:  E(RLC-B+HF-LYP) =  -362.735201154     A.U. after   16 cycles
 Total Energy, E(TD-HF/TD-DFT) =  -362.538013957
 SCF Done:  E(RLC-B+HF-LYP) =  -362.727330612     A.U. after   16 cycles
 Total Energy, E(TD-HF/TD-DFT) =  -362.547207730
 SCF Done:  E(RLC-B+HF-LYP) =  -362.722726692     A.U. after   15 cycles
 Total Energy, E(TD-HF/TD-DFT) =  -362.548215333
 SCF Done:  E(RLC-B+HF-LYP) =  -362.722396050     A.U. after   12 cycles
 Total Energy, E(TD-HF/TD-DFT) =  -362.548251089
 SCF Done:  E(RLC-B+HF-LYP) =  -362.722406816     A.U. after   11 cycles

 Excitation energies and oscillator strengths:

 Excited State   1:      Singlet-A      5.1312 eV  241.63 nm  f=0.0119  <S**2>=0.000
      30 -> 33         0.54011
      31 -> 38        -0.37342
      31 -> 43         0.11891

 Excited State   2:      Singlet-A      4.7390 eV  261.63 nm  f=0.2329  <S**2>=0.000
      30 -> 38         0.12805
      31 -> 33         0.67794
 This state for optimization and/or second-order correction.
 Total Energy, E(TD-HF/TD-DFT) =  -362.548253424
 Copying the excited state density for this state as the 1-particle RhoCI density.

 Excited State   3:      Singlet-A      5.4078 eV  229.27 nm  f=0.0055  <S**2>=0.000
      31 -> 32         0.66264
      31 -> 39        -0.12694

 Excited State   4:      Singlet-A      6.0652 eV  204.42 nm  f=0.0032  <S**2>=0.000
      31 -> 34         0.56037
      31 -> 35        -0.34009

 Excited State   5:      Singlet-A      6.1233 eV  202.48 nm  f=0.0021  <S**2>=0.000
      31 -> 32         0.10283
      31 -> 34         0.33167
      31 -> 35         0.52229
      31 -> 36         0.14334
      31 -> 39         0.11393
      31 -> 42         0.17415

 Excited State   6:      Singlet-A      6.3089 eV  196.52 nm  f=0.4776  <S**2>=0.000
      29 -> 33        -0.10045
      30 -> 33        -0.35380
      31 -> 38        -0.53453
      31 -> 40        -0.19278

 Optimization completed.
    -- Stationary point found.

                         Standard orientation:
 ---------------------------------------------------------------------
 Center     Atomic      Atomic             Coordinates (Angstroms)
 Number     Number       Type             X           Y           Z
 ---------------------------------------------------------------------
      1          6           0       -2.183383    0.636027   -0.000018
      2          6           0       -2.126674   -0.734420    0.000009
      3          6           0       -0.861585   -1.444597    0.000030
      4          6           0        0.262525   -0.661302    0.000026
      5          6           0        0.238600    0.753580   -0.000030
      6          6           0       -1.022222    1.429971   -0.000028
      7          7           0        1.602485   -1.033958    0.000013
      8          6           0        1.555140    1.186785   -0.000097
      9          6           0        2.398925    0.043949    0.000070
     10          1           0        1.925657   -1.992109    0.000253
     11          1           0        1.908882    2.208902   -0.000184
     12          1           0        3.476014   -0.032821    0.000103
     13          1           0       -3.043323   -1.314650    0.000010
     14          1           0       -0.826706   -2.527682    0.000010
     15          1           0       -3.152905    1.123606   -0.000039
     16          1           0       -1.072979    2.512504   -0.000022
 ---------------------------------------------------------------------

 The electronic state is 1-A.
 Alpha  occ. eigenvalues --  -14.31046 -10.20230 -10.19238 -10.16848 -10.16219
 Alpha  occ. eigenvalues --  -10.15998 -10.15795 -10.15393 -10.14499  -1.16240
 Alpha  occ. eigenvalues --   -1.01379  -0.95055  -0.90918  -0.87123  -0.78476
 Alpha  occ. eigenvalues --   -0.75045  -0.73038  -0.68789  -0.62501  -0.61344
 Alpha  occ. eigenvalues --   -0.57764  -0.57643  -0.56852  -0.53710  -0.52520
 Alpha  occ. eigenvalues --   -0.47630  -0.47115  -0.46858  -0.39786  -0.33774
 Alpha  occ. eigenvalues --   -0.29128
 Alpha virt. eigenvalues --    0.04456   0.04892   0.06348   0.06873   0.08087
 Alpha virt. eigenvalues --    0.08450   0.10166   0.10651   0.10665   0.10923
 Alpha virt. eigenvalues --    0.11654   0.11658   0.13717   0.14653   0.14861

 Mulliken charges:
               1
     1  C    0.031288
     2  C   -0.399956
     3  C   -0.312521
     4  C   -0.773733
     5  C    1.150541
     6  C   -0.740197
     7  N   -0.451034
     8  C    0.173165
     9  C   -0.321952
    10  H    0.437705
    11  H    0.221076
    12  H    0.229174
    13  H    0.187230
    14  H    0.190996
    15  H    0.184008
    16  H    0.194210
 Sum of Mulliken charges =  -0.00000

 Dipole moment (field-independent basis, Debye):
    X=              3.5325    Y=             -1.6298    Z=             -0.0000  Tot=              3.8904
 Quadrupole moment (field-independent basis, Debye-Ang):
   XX=            -45.5151   YY=            -46.5353   ZZ=            -60.9463
   XY=             -2.5484   XZ=              0.0004   YZ=             -0.0009

 Normal termination of Gaussian 16 at Wed Jun 16 07:59:58 2021.
