 Gaussian 16, Revision C.01,
 Gaussian 16:  AS64L-G16RevC.01  3-Jul-2019

 -----------------------------------------------------------
 # td= (nstates=6, root=3) M062X/6-31+G* Opt density=current
 -----------------------------------------------------------

 ----------------
 FuncsM062X-V-3rd
 ----------------
 Symbolic Z-matrix:
 Charge =  0 Multiplicity = 1

 SCF Done:  E(RM062X) =  -363.671654518     A.U. after   15 cycles
 Total Energy, E(TD-HF/TD-DFT) =  -363.481369506
 SCF Done:  E(RM062X) =  -363.665936731     A.U. after   14 cycles
 Total Energy, E(TD-HF/TD-DFT) =  -363.489455127
 SCF Done:  E(RM062X) =  -363.661587000     A.U. after   13 cycles
 Total Energy, E(TD-HF/TD-DFT) =  -363.489018677
 SCF Done:  E(RM062X) =  -363.660896999     A.U. after   13 cycles
 Total Energy, E(TD-HF/TD-DFT) =  -363.491131649
 SCF Done:  E(RM062X) =  -363.630563508     A.U. after   14 cycles
 Total Energy, E(TD-HF/TD-DFT) =  -363.481464646
 SCF Done:  E(RM062X) =  -363.658875070     A.U. after   12 cycles
 Total Energy, E(TD-HF/TD-DFT) =  -363.493079457
 SCF Done:  E(RM062X) =  -363.660418956     A.U. after   14 cycles
 Total Energy, E(TD-HF/TD-DFT) =  -363.494463800
 SCF Done:  E(RM062X) =  -363.659534502     A.U. after   13 cycles
 Total Energy, E(TD-HF/TD-DFT) =  -363.494575759
 SCF Done:  E(RM062X) =  -363.659787151     A.U. after   11 cycles
 Total Energy, E(TD-HF/TD-DFT) =  -363.494594769
 SCF Done:  E(RM062X) =  -363.659843125     A.U. after   11 cycles
 Total Energy, E(TD-HF/TD-DFT) =  -363.494598923
 SCF Done:  E(RM062X) =  -363.659863790     A.U. after   11 cycles
 Total Energy, E(TD-HF/TD-DFT) =  -363.494601353
 SCF Done:  E(RM062X) =  -363.659856352     A.U. after   11 cycles
 Total Energy, E(TD-HF/TD-DFT) =  -363.494603338
 SCF Done:  E(RM062X) =  -363.659844625     A.U. after   11 cycles
 Total Energy, E(TD-HF/TD-DFT) =  -363.494604748
 SCF Done:  E(RM062X) =  -363.659836615     A.U. after   10 cycles

 Excitation energies and oscillator strengths:

 Excited State   1:      Singlet-A      5.0016 eV  247.89 nm  f=0.0089  <S**2>=0.000
      30 -> 32         0.54472
      31 -> 38        -0.41362

 Excited State   2:      Singlet-A      4.7547 eV  260.76 nm  f=0.0021  <S**2>=0.000
      31 -> 33         0.69424

 Excited State   3:      Singlet-A      4.4962 eV  275.75 nm  f=0.1546  <S**2>=0.000
      31 -> 32         0.69113
 This state for optimization and/or second-order correction.
 Total Energy, E(TD-HF/TD-DFT) =  -363.494605332
 Copying the excited state density for this state as the 1-particle RhoCI density.

 Excited State   4:      Singlet-A      5.4389 eV  227.96 nm  f=0.0010  <S**2>=0.000
      31 -> 34         0.66875
      31 -> 35        -0.15605

 Excited State   5:      Singlet-A      5.5001 eV  225.42 nm  f=0.0022  <S**2>=0.000
      31 -> 34         0.15059
      31 -> 35         0.65630
      31 -> 36         0.15048

 Excited State   6:      Singlet-A      5.9322 eV  209.00 nm  f=0.0014  <S**2>=0.000
      30 -> 33         0.52417
      31 -> 36         0.33617
      31 -> 37         0.25462

 Optimization completed.
    -- Stationary point found.

                         Standard orientation:
 ---------------------------------------------------------------------
 Center     Atomic      Atomic             Coordinates (Angstroms)
 Number     Number       Type             X           Y           Z
 ---------------------------------------------------------------------
      1          6           0       -2.193365    0.642920   -0.000032
      2          6           0       -2.138009   -0.736280    0.000142
      3          6           0       -0.879554   -1.459389    0.000870
      4          6           0        0.255060   -0.653708   -0.000934
      5          6           0        0.231594    0.754694   -0.000907
      6          6           0       -1.019172    1.447211    0.000156
      7          7           0        1.608584   -1.034950   -0.000269
      8          6           0        1.575080    1.188290    0.000155
      9          6           0        2.420978    0.030189    0.000765
     10          1           0        1.921852   -1.997609   -0.000906
     11          1           0        1.935332    2.208549    0.001177
     12          1           0        3.496676   -0.058816   -0.000248
     13          1           0       -3.060360   -1.309040   -0.000058
     14          1           0       -0.840270   -2.541982    0.000463
     15          1           0       -3.163766    1.130295   -0.000385
     16          1           0       -1.065229    2.529696    0.000546
 ---------------------------------------------------------------------

 The electronic state is 1-A.
 Alpha  occ. eigenvalues --  -14.81473 -10.59301 -10.58634 -10.56212 -10.55544
 Alpha  occ. eigenvalues --  -10.55215 -10.55029 -10.54708 -10.53915  -1.09841
 Alpha  occ. eigenvalues --   -0.94060  -0.87487  -0.83721  -0.80012  -0.71375
 Alpha  occ. eigenvalues --   -0.67927  -0.65802  -0.61799  -0.55678  -0.54461
 Alpha  occ. eigenvalues --   -0.50589  -0.49975  -0.49939  -0.46842  -0.45545
 Alpha  occ. eigenvalues --   -0.40864  -0.40521  -0.40133  -0.33246  -0.28470
 Alpha  occ. eigenvalues --   -0.24141
 Alpha virt. eigenvalues --    0.00099   0.00593   0.02567   0.03096   0.04271
 Alpha virt. eigenvalues --    0.04564   0.05146   0.06594   0.06663   0.06960
 Alpha virt. eigenvalues --    0.07322   0.07597   0.09834   0.10222   0.10841

 Mulliken charges:
               1
     1  C   -0.050413
     2  C   -0.389074
     3  C   -0.276541
     4  C   -1.035395
     5  C    1.233267
     6  C   -0.608792
     7  N   -0.435409
     8  C    0.107329
     9  C   -0.282674
    10  H    0.461235
    11  H    0.242515
    12  H    0.244287
    13  H    0.195991
    14  H    0.198559
    15  H    0.194233
    16  H    0.200883
 Sum of Mulliken charges =  -0.00000

 Dipole moment (field-independent basis, Debye):
    X=              4.4237    Y=             -1.4089    Z=             -0.0092  Tot=              4.6426
 Quadrupole moment (field-independent basis, Debye-Ang):
   XX=            -44.5112   YY=            -46.7496   ZZ=            -61.3045
   XY=             -2.3337   XZ=             -0.0127   YZ=              0.0121

 Normal termination of Gaussian 16 at Wed Jun 16 09:52:05 2021.
