 Gaussian 16, Revision C.01,
 Gaussian 16:  AS64L-G16RevC.01  3-Jul-2019

 ---------------------------------------------------------
 # td= (nstates=6, root=3) CIS/6-31+G* Opt density=current
 ---------------------------------------------------------

 --------------
 FuncsCIS-V-3rd
 --------------
 Symbolic Z-matrix:
 Charge =  0 Multiplicity = 1

 SCF Done:  E(RHF) =  -361.478205206     A.U. after   17 cycles
 SCF Done:  E(RHF) =  -361.473320730     A.U. after   16 cycles
 SCF Done:  E(RHF) =  -361.472171197     A.U. after   14 cycles
 SCF Done:  E(RHF) =  -361.471445776     A.U. after   13 cycles
 SCF Done:  E(RHF) =  -361.470713407     A.U. after   14 cycles
 SCF Done:  E(RHF) =  -361.467854864     A.U. after   15 cycles
 SCF Done:  E(RHF) =  -361.468809151     A.U. after   13 cycles
 SCF Done:  E(RHF) =  -361.467474201     A.U. after   17 cycles
 SCF Done:  E(RHF) =  -361.317989104     A.U. after   18 cycles
 SCF Done:  E(RHF) =  -361.464649947     A.U. after   17 cycles
 SCF Done:  E(RHF) =  -361.468948850     A.U. after   15 cycles
 SCF Done:  E(RHF) =  -361.465113975     A.U. after   15 cycles
 SCF Done:  E(RHF) =  -361.467656413     A.U. after   14 cycles
 SCF Done:  E(RHF) =  -361.468434066     A.U. after   11 cycles
 SCF Done:  E(RHF) =  -361.467228466     A.U. after   15 cycles
 SCF Done:  E(RHF) =  -361.466901931     A.U. after   14 cycles
 SCF Done:  E(RHF) =  -361.466651350     A.U. after   14 cycles
 SCF Done:  E(RHF) =  -361.466697126     A.U. after   14 cycles
 SCF Done:  E(RHF) =  -361.466899466     A.U. after    8 cycles
 SCF Done:  E(RHF) =  -361.467020472     A.U. after   12 cycles

 Excitation energies and oscillator strengths:

 Excited State   1:      Singlet-A      5.5824 eV  222.10 nm  f=0.0108  <S**2>=0.000
      30 -> 35        -0.48713
      30 -> 40         0.10204
      30 -> 41        -0.14815
      31 -> 41        -0.23446
      31 -> 43         0.27899
      31 -> 44        -0.14198
      31 -> 47         0.10166
      31 -> 54        -0.12457

 Excited State   2:      Singlet-A      5.2186 eV  237.58 nm  f=0.0108  <S**2>=0.000
      31 -> 32        -0.65349
      31 -> 34         0.10932
      31 -> 39         0.10266
      31 -> 42        -0.10670

 Excited State   3:      Singlet-A      5.0708 eV  244.51 nm  f=0.3471  <S**2>=0.000
      30 -> 41         0.10687
      30 -> 43        -0.13519
      31 -> 35        -0.62887
      31 -> 41        -0.11683
 This state for optimization and/or second-order correction.
 Total Energy, E(CIS/TDA) =  -361.280671740
 Copying the excited state density for this state as the 1-particle RhoCI density.

 Excited State   4:      Singlet-A      5.7759 eV  214.66 nm  f=0.0017  <S**2>=0.000
      31 -> 33         0.61547
      31 -> 34        -0.24308

 Excited State   5:      Singlet-A      5.8749 eV  211.04 nm  f=0.0012  <S**2>=0.000
      31 -> 32        -0.13693
      31 -> 33        -0.24466
      31 -> 34        -0.58187
      31 -> 36        -0.10267
      31 -> 42         0.15123

 Excited State   6:      Singlet-A      6.3580 eV  195.01 nm  f=0.0214  <S**2>=0.000
      30 -> 32        -0.32582
      30 -> 33         0.10882
      30 -> 34         0.10135
      31 -> 37         0.54265
      31 -> 39        -0.10646

 Optimization completed.
    -- Stationary point found.

                         Standard orientation:
 ---------------------------------------------------------------------
 Center     Atomic      Atomic             Coordinates (Angstroms)
 Number     Number       Type             X           Y           Z
 ---------------------------------------------------------------------
      1          6           0       -2.186091    0.645507   -0.000078
      2          6           0       -2.126541   -0.740218    0.000446
      3          6           0       -0.863925   -1.446756   -0.001185
      4          6           0        0.269187   -0.672106    0.000819
      5          6           0        0.241922    0.753902    0.001349
      6          6           0       -1.029133    1.432040   -0.001126
      7          7           0        1.604824   -1.039501    0.001024
      8          6           0        1.560665    1.190918    0.000727
      9          6           0        2.392537    0.049877   -0.001216
     10          1           0        1.934945   -1.978144   -0.002050
     11          1           0        1.917034    2.200915    0.000139
     12          1           0        3.459726   -0.021237   -0.002273
     13          1           0       -3.035175   -1.314014    0.001181
     14          1           0       -0.835395   -2.520595   -0.001011
     15          1           0       -3.147764    1.125613   -0.000023
     16          1           0       -1.078864    2.504984   -0.001549
 ---------------------------------------------------------------------

 The electronic state is 1-A.
 Alpha  occ. eigenvalues --  -15.61789 -11.28151 -11.26940 -11.24208 -11.23764
 Alpha  occ. eigenvalues --  -11.23521 -11.23363 -11.22753 -11.21809  -1.31128
 Alpha  occ. eigenvalues --   -1.12905  -1.05854  -1.00955  -0.96596  -0.85215
 Alpha  occ. eigenvalues --   -0.81513  -0.79126  -0.73469  -0.67066  -0.65191
 Alpha  occ. eigenvalues --   -0.61031  -0.60184  -0.58780  -0.56993  -0.55451
 Alpha  occ. eigenvalues --   -0.50553  -0.49221  -0.46244  -0.38214  -0.31190
 Alpha  occ. eigenvalues --   -0.26530
 Alpha virt. eigenvalues --    0.05886   0.07640   0.08185   0.08819   0.09228
 Alpha virt. eigenvalues --    0.09793   0.12073   0.12109   0.12934   0.13377
 Alpha virt. eigenvalues --    0.13444   0.14168   0.15849   0.16061   0.16300

 Mulliken charges:
               1
     1  C   -0.060046
     2  C   -0.442784
     3  C   -0.205373
     4  C   -0.755393
     5  C    1.136646
     6  C   -0.834792
     7  N   -0.523916
     8  C   -0.017080
     9  C   -0.275117
    10  H    0.488513
    11  H    0.262733
    12  H    0.266343
    13  H    0.236512
    14  H    0.242604
    15  H    0.230955
    16  H    0.250195
 Sum of Mulliken charges =  -0.00000

 Dipole moment (field-independent basis, Debye):
    X=              2.6376    Y=             -1.5245    Z=              0.0635  Tot=              3.0472
 Quadrupole moment (field-independent basis, Debye-Ang):
   XX=            -46.9173   YY=            -47.0959   ZZ=            -63.6880
   XY=             -2.4435   XZ=              0.1171   YZ=             -0.0241

 Normal termination of Gaussian 16 at Wed Jun 23 07:49:49 2021.
