 Gaussian 16, Revision C.01,
 Gaussian 16:  AS64L-G16RevC.01  3-Jul-2019

 ---------------------------------------------------------
 # td= (nstates=6, root=3) M06/6-31+G* Opt density=current
 ---------------------------------------------------------

 --------------
 FuncsM06-V-3rd
 --------------
 Symbolic Z-matrix:
 Charge =  0 Multiplicity = 1

 SCF Done:  E(RM06) =  -363.551124218     A.U. after   15 cycles
 Total Energy, E(TD-HF/TD-DFT) =  -363.378073000
 SCF Done:  E(RM06) =  -363.545183110     A.U. after   14 cycles
 Total Energy, E(TD-HF/TD-DFT) =  -363.387032432
 SCF Done:  E(RM06) =  -363.542050649     A.U. after   13 cycles
 Total Energy, E(TD-HF/TD-DFT) =  -363.387917741
 SCF Done:  E(RM06) =  -363.541582758     A.U. after   12 cycles
 Total Energy, E(TD-HF/TD-DFT) =  -363.387983052
 SCF Done:  E(RM06) =  -363.541588566     A.U. after   10 cycles
 Total Energy, E(TD-HF/TD-DFT) =  -363.387994861
 SCF Done:  E(RM06) =  -363.541678499     A.U. after   10 cycles

 Excitation energies and oscillator strengths:

 Excited State   1:      Singlet-A      3.8906 eV  318.68 nm  f=0.0008  <S**2>=0.000
      31 -> 32         0.70437

 Excited State   2:      Singlet-A      4.5169 eV  274.49 nm  f=0.0001  <S**2>=0.000
      31 -> 34         0.70259

 Excited State   3:      Singlet-A      4.1819 eV  296.48 nm  f=0.1188  <S**2>=0.000
      30 -> 38         0.10252
      31 -> 33         0.68578
 This state for optimization and/or second-order correction.
 Total Energy, E(TD-HF/TD-DFT) =  -363.387996375
 Copying the excited state density for this state as the 1-particle RhoCI density.

 Excited State   4:      Singlet-A      4.6040 eV  269.30 nm  f=0.0003  <S**2>=0.000
      31 -> 35         0.70088

 Excited State   5:      Singlet-A      4.7153 eV  262.94 nm  f=0.0099  <S**2>=0.000
      30 -> 33         0.55046
      31 -> 38        -0.41167
      31 -> 42         0.10410

 Excited State   6:      Singlet-A      4.9092 eV  252.55 nm  f=0.0004  <S**2>=0.000
      30 -> 32         0.69453

 Optimization completed.
    -- Stationary point found.

                         Standard orientation:
 ---------------------------------------------------------------------
 Center     Atomic      Atomic             Coordinates (Angstroms)
 Number     Number       Type             X           Y           Z
 ---------------------------------------------------------------------
      1          6           0       -2.189660    0.648529   -0.000099
      2          6           0       -2.136625   -0.732594   -0.000025
      3          6           0       -0.888210   -1.457169    0.000059
      4          6           0        0.254211   -0.652463    0.000068
      5          6           0        0.230970    0.750281    0.000007
      6          6           0       -1.012928    1.446864   -0.000086
      7          7           0        1.604212   -1.039113    0.000093
      8          6           0        1.580244    1.182446    0.000055
      9          6           0        2.420328    0.030740   -0.000073
     10          1           0        1.916354   -2.002950    0.000198
     11          1           0        1.939778    2.205740    0.000005
     12          1           0        3.498738   -0.056902   -0.000172
     13          1           0       -3.065292   -1.301787   -0.000021
     14          1           0       -0.852371   -2.543484    0.000116
     15          1           0       -3.161619    1.139797   -0.000138
     16          1           0       -1.055055    2.533579   -0.000078
 ---------------------------------------------------------------------

 The electronic state is 1-A.
 Alpha  occ. eigenvalues --  -14.46237 -10.29999 -10.29543 -10.27110 -10.26505
 Alpha  occ. eigenvalues --  -10.26217 -10.26029 -10.25789 -10.24891  -1.00078
 Alpha  occ. eigenvalues --   -0.85109  -0.79032  -0.75231  -0.72010  -0.63989
 Alpha  occ. eigenvalues --   -0.60696  -0.58826  -0.55130  -0.49268  -0.48255
 Alpha  occ. eigenvalues --   -0.44967  -0.44345  -0.43964  -0.41343  -0.40336
 Alpha  occ. eigenvalues --   -0.36089  -0.35600  -0.34854  -0.28696  -0.24479
 Alpha  occ. eigenvalues --   -0.20855
 Alpha virt. eigenvalues --   -0.03258  -0.02507  -0.01330  -0.00833   0.00280
 Alpha virt. eigenvalues --    0.00578   0.02043   0.02751   0.02940   0.03414
 Alpha virt. eigenvalues --    0.03827   0.04145   0.06404   0.06805   0.06807

 Mulliken charges:
               1
     1  C   -0.066235
     2  C   -0.384540
     3  C   -0.001384
     4  C   -1.358303
     5  C    1.144217
     6  C   -0.428840
     7  N   -0.388808
     8  C    0.087931
     9  C   -0.219082
    10  H    0.439076
    11  H    0.229412
    12  H    0.226175
    13  H    0.181455
    14  H    0.178512
    15  H    0.179845
    16  H    0.180567
 Sum of Mulliken charges =  -0.00000

 Dipole moment (field-independent basis, Debye):
    X=              4.1617    Y=             -1.1617    Z=              0.0001  Tot=              4.3208
 Quadrupole moment (field-independent basis, Debye-Ang):
   XX=            -44.6287   YY=            -46.6291   ZZ=            -60.6474
   XY=             -2.0720   XZ=             -0.0004   YZ=             -0.0002

 Normal termination of Gaussian 16 at Wed Jun 23 12:08:29 2021.
