 Gaussian 16, Revision C.01,
 Gaussian 16:  AS64L-G16RevC.01  3-Jul-2019

 ------------------------------------------------------------
 # td= (nstates=6, root=2) B3PW91/6-31+G* Opt density=current
 ------------------------------------------------------------

 -----------------
 FuncsB3PW91-V-2nd
 -----------------
 Symbolic Z-matrix:
 Charge =  0 Multiplicity = 1

 SCF Done:  E(RB3PW91) =  -363.692543051     A.U. after   14 cycles
 Total Energy, E(TD-HF/TD-DFT) =  -363.510325712
 SCF Done:  E(RB3PW91) =  -363.689003925     A.U. after   13 cycles
 Total Energy, E(TD-HF/TD-DFT) =  -363.515873832
 SCF Done:  E(RB3PW91) =  -363.688559413     A.U. after   12 cycles
 Total Energy, E(TD-HF/TD-DFT) =  -363.515853219
 SCF Done:  E(RB3PW91) =  -363.688565689     A.U. after   11 cycles
 Total Energy, E(TD-HF/TD-DFT) =  -363.516024705
 SCF Done:  E(RB3PW91) =  -363.688659674     A.U. after   10 cycles
 Total Energy, E(TD-HF/TD-DFT) =  -363.516055922
 SCF Done:  E(RB3PW91) =  -363.688637114     A.U. after   10 cycles

 Excitation energies and oscillator strengths:

 Excited State   1:      Singlet-A      4.6384 eV  267.30 nm  f=0.0820  <S**2>=0.000
      30 -> 32        -0.16866
      30 -> 34         0.15803
      31 -> 32         0.65320

 Excited State   2:      Singlet-A      4.6961 eV  264.02 nm  f=0.0465  <S**2>=0.000
      30 -> 32         0.56831
      31 -> 32         0.14655
      31 -> 34        -0.38388
 This state for optimization and/or second-order correction.
 Total Energy, E(TD-HF/TD-DFT) =  -363.516058608
 Copying the excited state density for this state as the 1-particle RhoCI density.

 Excited State   3:      Singlet-A      5.1402 eV  241.20 nm  f=0.0024  <S**2>=0.000
      31 -> 33         0.70390

 Excited State   4:      Singlet-A      5.5219 eV  224.53 nm  f=0.0018  <S**2>=0.000
      30 -> 33         0.69894

 Excited State   5:      Singlet-A      5.7128 eV  217.03 nm  f=0.0000  <S**2>=0.000
      31 -> 35         0.69787

 Excited State   6:      Singlet-A      5.8334 eV  212.54 nm  f=0.0014  <S**2>=0.000
      31 -> 36         0.69706

 Optimization completed.
    -- Stationary point found.

                         Standard orientation:
 ---------------------------------------------------------------------
 Center     Atomic      Atomic             Coordinates (Angstroms)
 Number     Number       Type             X           Y           Z
 ---------------------------------------------------------------------
      1          6           0       -2.164750    0.700776   -0.000002
      2          6           0       -2.145556   -0.731665    0.000039
      3          6           0       -0.937098   -1.457546    0.000034
      4          6           0        0.250268   -0.684796   -0.000010
      5          6           0        0.258981    0.776123   -0.000028
      6          6           0       -0.972826    1.473997   -0.000038
      7          7           0        1.560579   -1.086524   -0.000089
      8          6           0        1.619190    1.170258   -0.000008
      9          6           0        2.403949    0.021669    0.000047
     10          1           0        1.871641   -2.045813    0.000436
     11          1           0        1.998967    2.183750   -0.000049
     12          1           0        3.478093   -0.098998    0.000028
     13          1           0       -3.090537   -1.267269    0.000058
     14          1           0       -0.920523   -2.542836    0.000015
     15          1           0       -3.126824    1.205511   -0.000010
     16          1           0       -1.007825    2.558436   -0.000057
 ---------------------------------------------------------------------

 The electronic state is 1-A.
 Alpha  occ. eigenvalues --  -14.38204 -10.21716 -10.21677 -10.18696 -10.18234
 Alpha  occ. eigenvalues --  -10.18176 -10.18156 -10.17739 -10.17128  -0.98920
 Alpha  occ. eigenvalues --   -0.83611  -0.78949  -0.73614  -0.72046  -0.62992
 Alpha  occ. eigenvalues --   -0.60277  -0.58385  -0.54263  -0.49256  -0.47287
 Alpha  occ. eigenvalues --   -0.43947  -0.43633  -0.42504  -0.41085  -0.39713
 Alpha  occ. eigenvalues --   -0.35830  -0.34165  -0.33346  -0.28616  -0.22448
 Alpha  occ. eigenvalues --   -0.21076
 Alpha virt. eigenvalues --   -0.02503   0.00692   0.01232   0.02588   0.03157
 Alpha virt. eigenvalues --    0.04561   0.04604   0.04730   0.06871   0.07089
 Alpha virt. eigenvalues --    0.07470   0.07495   0.09433   0.09859   0.11514

 Mulliken charges:
               1
     1  C   -0.026256
     2  C   -0.449056
     3  C   -0.286677
     4  C   -1.025287
     5  C    1.480236
     6  C   -0.779856
     7  N   -0.413451
     8  C    0.084569
     9  C   -0.270667
    10  H    0.433199
    11  H    0.216695
    12  H    0.220971
    13  H    0.203309
    14  H    0.202769
    15  H    0.202662
    16  H    0.206840
 Sum of Mulliken charges =  -0.00000

 Dipole moment (field-independent basis, Debye):
    X=              2.0984    Y=             -1.4347    Z=              0.0005  Tot=              2.5420
 Quadrupole moment (field-independent basis, Debye-Ang):
   XX=            -45.2707   YY=            -45.4218   ZZ=            -59.7716
   XY=             -3.0210   XZ=              0.0011   YZ=             -0.0016

 Normal termination of Gaussian 16 at Mon Jun 14 11:26:13 2021.
