 Gaussian 16, Revision B.01,
 Gaussian 16:  ES64L-G16RevB.01 20-Dec-2017

 --------------------------------------------------------------------
 # opt td=(root=2) LC-BLYP/6-31+g(d) density=current scf=maxcycle=600
 --------------------------------------------------------------------

 -------------------
 Title Card Required
 -------------------
 Symbolic Z-matrix:
 Charge =  0 Multiplicity = 1

 SCF Done:  E(RLC-B+HF-LYP) =  -362.735174233     A.U. after   16 cycles
 Total Energy, E(TD-HF/TD-DFT) =  -362.538021133
 SCF Done:  E(RLC-B+HF-LYP) =  -362.727329604     A.U. after   15 cycles
 Total Energy, E(TD-HF/TD-DFT) =  -362.547216159
 SCF Done:  E(RLC-B+HF-LYP) =  -362.722746452     A.U. after   15 cycles
 Total Energy, E(TD-HF/TD-DFT) =  -362.548215577
 SCF Done:  E(RLC-B+HF-LYP) =  -362.722397416     A.U. after   12 cycles
 Total Energy, E(TD-HF/TD-DFT) =  -362.548251181
 SCF Done:  E(RLC-B+HF-LYP) =  -362.722407108     A.U. after   11 cycles

 Excitation energies and oscillator strengths:

 Excited State   1:      Singlet-A'     5.1312 eV  241.63 nm  f=0.0119  <S**2>=0.000
      30 -> 33         0.54011
      31 -> 38        -0.37341
      31 -> 43         0.11904

 Excited State   2:      Singlet-A'     4.7390 eV  261.63 nm  f=0.2330  <S**2>=0.000
      30 -> 38         0.12805
      31 -> 33         0.67794
 This state for optimization and/or second-order correction.
 Total Energy, E(TD-HF/TD-DFT) =  -362.548253487
 Copying the excited state density for this state as the 1-particle RhoCI density.

 Excited State   3:      Singlet-A"     5.4078 eV  229.27 nm  f=0.0055  <S**2>=0.000
      31 -> 32         0.66264
      31 -> 39        -0.12698

 Optimization completed.
    -- Stationary point found.

                         Standard orientation:
 ---------------------------------------------------------------------
 Center     Atomic      Atomic             Coordinates (Angstroms)
 Number     Number       Type             X           Y           Z
 ---------------------------------------------------------------------
      1          6           0       -2.245871    0.844280    0.000000
      2          1           0       -3.218640    1.313042    0.000000
      3          6           0       -1.883296   -0.529250    0.000000
      4          1           0       -2.589210   -1.348729    0.000000
      5          6           0       -0.499817   -0.612374    0.000000
      6          6           0        0.422484   -1.706250   -0.000000
      7          6           0        1.794647   -1.396750   -0.000000
      8          6           0        2.247591   -0.102071   -0.000000
      9          6           0        1.333807    1.024772   -0.000000
     10          6           0       -0.000000    0.711506    0.000000
     11          1           0        0.070233   -2.731127   -0.000000
     12          1           0        2.515872   -2.207640   -0.000000
     13          1           0        3.313651    0.098996   -0.000000
     14          1           0        1.701008    2.044308   -0.000000
     15          7           0       -1.107917    1.552273    0.000000
     16          1           0       -1.054757    2.562060    0.000000
 ---------------------------------------------------------------------

 The electronic state is 1-A'.
 Alpha  occ. eigenvalues --  -14.31046 -10.20230 -10.19238 -10.16848 -10.16219
 Alpha  occ. eigenvalues --  -10.15998 -10.15795 -10.15393 -10.14499  -1.16240
 Alpha  occ. eigenvalues --   -1.01379  -0.95056  -0.90918  -0.87123  -0.78476
 Alpha  occ. eigenvalues --   -0.75045  -0.73038  -0.68789  -0.62501  -0.61344
 Alpha  occ. eigenvalues --   -0.57764  -0.57643  -0.56852  -0.53710  -0.52520
 Alpha  occ. eigenvalues --   -0.47630  -0.47115  -0.46858  -0.39786  -0.33774
 Alpha  occ. eigenvalues --   -0.29128
 Alpha virt. eigenvalues --    0.04456   0.04892   0.06348   0.06873   0.08087
 Alpha virt. eigenvalues --    0.08450   0.10166   0.10651   0.10665   0.10923
 Alpha virt. eigenvalues --    0.11654   0.11658   0.13717   0.14653   0.14861

 Mulliken charges:
               1
     1  C   -0.321945
     2  H    0.229174
     3  C    0.173160
     4  H    0.221076
     5  C    1.150538
     6  C   -0.740215
     7  C    0.031288
     8  C   -0.399958
     9  C   -0.312527
    10  C   -0.773707
    11  H    0.194211
    12  H    0.184008
    13  H    0.187231
    14  H    0.190997
    15  N   -0.451035
    16  H    0.437704
 Sum of Mulliken charges =  -0.00000

 Dipole moment (field-independent basis, Debye):
    X=             -2.6819    Y=              2.8182    Z=             -0.0000  Tot=              3.8904
 Quadrupole moment (field-independent basis, Debye-Ang):
   XX=            -47.4017   YY=            -44.6487   ZZ=            -60.9464
   XY=             -2.2043   XZ=              0.0000   YZ=              0.0000

 Normal termination of Gaussian 16 at Tue Jun 26 08:37:34 2018.
