 Gaussian 16, Revision B.01,
 Gaussian 16:  ES64L-G16RevB.01 20-Dec-2017

 ---------------------------------------------------
 # opt td=(root=1) M062X/6-31+g(d) geom=connectivity
 ---------------------------------------------------

 -------------------
 Title Card Required
 -------------------
 Symbolic Z-matrix:
 Charge =  0 Multiplicity = 1

 SCF Done:  E(RM062X) =  -363.661313589     A.U. after   15 cycles
 Total Energy, E(TD-HF/TD-DFT) =  -363.481891480
 SCF Done:  E(RM062X) =  -363.661060188     A.U. after   14 cycles
 Total Energy, E(TD-HF/TD-DFT) =  -363.493874209
 SCF Done:  E(RM062X) =  -363.660239555     A.U. after   13 cycles
 Total Energy, E(TD-HF/TD-DFT) =  -363.494559395
 SCF Done:  E(RM062X) =  -363.659830077     A.U. after   11 cycles
 Total Energy, E(TD-HF/TD-DFT) =  -363.494602552
 SCF Done:  E(RM062X) =  -363.659834982     A.U. after   10 cycles

 Excitation energies and oscillator strengths:

 Excited State   1:      Singlet-A      4.4961 eV  275.76 nm  f=0.1547  <S**2>=0.000
      31 -> 32         0.69112
 This state for optimization and/or second-order correction.
 Total Energy, E(TD-HF/TD-DFT) =  -363.494605489
 Copying the excited state density for this state as the 1-particle RhoCI density.

 Excited State   2:      Singlet-A      4.7543 eV  260.78 nm  f=0.0021  <S**2>=0.000
      31 -> 33         0.69426

 Excited State   3:      Singlet-A      5.0011 eV  247.91 nm  f=0.0090  <S**2>=0.000
      30 -> 32         0.54514
      31 -> 38        -0.41304

 Optimization completed.
    -- Stationary point found.

                         Standard orientation:
 ---------------------------------------------------------------------
 Center     Atomic      Atomic             Coordinates (Angstroms)
 Number     Number       Type             X           Y           Z
 ---------------------------------------------------------------------
      1          6           0        2.420807    0.030147    0.000001
      2          1           0        3.496426   -0.059858    0.000001
      3          6           0        1.574839    1.188405   -0.000001
      4          1           0        1.935652    2.208491   -0.000002
      5          6           0        0.231636    0.754904   -0.000001
      6          6           0       -1.019341    1.447477    0.000001
      7          6           0       -2.193242    0.642846    0.000000
      8          6           0       -2.137621   -0.736437   -0.000000
      9          6           0       -0.879448   -1.459598   -0.000000
     10          6           0        0.255185   -0.653716   -0.000001
     11          1           0       -1.064714    2.529941    0.000001
     12          1           0       -3.163825    1.129826    0.000000
     13          1           0       -3.060087   -1.309067   -0.000001
     14          1           0       -0.839701   -2.542156   -0.000000
     15          7           0        1.608285   -1.034820    0.000000
     16          1           0        1.921362   -1.997606    0.000002
 ---------------------------------------------------------------------

 The electronic state is 1-A.
 Alpha  occ. eigenvalues --  -14.81476 -10.59300 -10.58630 -10.56211 -10.55545
 Alpha  occ. eigenvalues --  -10.55213 -10.55028 -10.54708 -10.53916  -1.09852
 Alpha  occ. eigenvalues --   -0.94057  -0.87491  -0.83719  -0.80012  -0.71378
 Alpha  occ. eigenvalues --   -0.67929  -0.65801  -0.61798  -0.55681  -0.54462
 Alpha  occ. eigenvalues --   -0.50587  -0.49974  -0.49945  -0.46841  -0.45545
 Alpha  occ. eigenvalues --   -0.40862  -0.40523  -0.40132  -0.33250  -0.28464
 Alpha  occ. eigenvalues --   -0.24141
 Alpha virt. eigenvalues --    0.00098   0.00591   0.02567   0.03096   0.04271
 Alpha virt. eigenvalues --    0.04564   0.05149   0.06594   0.06663   0.06960
 Alpha virt. eigenvalues --    0.07323   0.07596   0.09833   0.10222   0.10841

 Mulliken charges:
               1
     1  C   -0.237168
     2  H    0.223820
     3  C    0.012729
     4  H    0.211075
     5  C    1.133840
     6  C   -0.485731
     7  C   -0.070022
     8  C   -0.398286
     9  C   -0.190355
    10  C   -0.949121
    11  H    0.211571
    12  H    0.199193
    13  H    0.198267
    14  H    0.208033
    15  N   -0.505247
    16  H    0.437404
 Sum of Mulliken charges =  -0.00000

 Dipole moment (field-independent basis, Debye):
    X=              1.5423    Y=             -1.7393    Z=              0.0000  Tot=              2.3246
 Quadrupole moment (field-independent basis, Debye-Ang):
   XX=            -44.6639   YY=            -44.4667   ZZ=            -59.4937
   XY=             -3.8161   XZ=              0.0000   YZ=             -0.0000

 Normal termination of Gaussian 16 at Tue Jun 12 15:12:54 2018.
