 Gaussian 16, Revision B.01,
 Gaussian 16:  ES64L-G16RevB.01 20-Dec-2017

 ---------------------------------------------------
 # opt td=(root=2) M062X/6-31+g(d) geom=connectivity
 ---------------------------------------------------

 -------------------
 Title Card Required
 -------------------
 Symbolic Z-matrix:
 Charge =  0 Multiplicity = 1

 SCF Done:  E(RM062X) =  -363.661313589     A.U. after   15 cycles
 Total Energy, E(TD-HF/TD-DFT) =  -363.479271221
 SCF Done:  E(RM062X) =  -363.664544997     A.U. after   14 cycles
 Total Energy, E(TD-HF/TD-DFT) =  -363.489669566
 SCF Done:  E(RM062X) =  -363.662443292     A.U. after   13 cycles
 Total Energy, E(TD-HF/TD-DFT) =  -363.490450733
 SCF Done:  E(RM062X) =  -363.662131336     A.U. after   11 cycles
 Total Energy, E(TD-HF/TD-DFT) =  -363.490480625
 SCF Done:  E(RM062X) =  -363.662036491     A.U. after   11 cycles

 Excitation energies and oscillator strengths:

 Excited State   1:      Singlet-A      4.7110 eV  263.18 nm  f=0.1637  <S**2>=0.000
      30 -> 38         0.11592
      31 -> 33         0.68446

 Excited State   2:      Singlet-A      4.6682 eV  265.59 nm  f=0.0017  <S**2>=0.000
      31 -> 32         0.69529
 This state for optimization and/or second-order correction.
 Total Energy, E(TD-HF/TD-DFT) =  -363.490483975
 Copying the excited state density for this state as the 1-particle RhoCI density.

 Excited State   3:      Singlet-A      5.1220 eV  242.06 nm  f=0.0059  <S**2>=0.000
      30 -> 33         0.50661
      31 -> 38        -0.45838

 Optimization completed.
    -- Stationary point found.

                         Standard orientation:
 ---------------------------------------------------------------------
 Center     Atomic      Atomic             Coordinates (Angstroms)
 Number     Number       Type             X           Y           Z
 ---------------------------------------------------------------------
      1          6           0        2.375449    0.043538    0.000000
      2          1           0        3.456035   -0.049692    0.000000
      3          6           0        1.548859    1.211473   -0.000000
      4          1           0        1.908315    2.232146   -0.000000
      5          6           0        0.217207    0.759032   -0.000000
      6          6           0       -1.030994    1.416709    0.000000
      7          6           0       -2.183100    0.640604   -0.000000
      8          6           0       -2.100020   -0.757563    0.000000
      9          6           0       -0.865003   -1.441230   -0.000000
     10          6           0        0.268508   -0.663926    0.000000
     11          1           0       -1.084309    2.500592    0.000000
     12          1           0       -3.157219    1.117179    0.000000
     13          1           0       -3.014568   -1.341641    0.000000
     14          1           0       -0.818725   -2.521953    0.000000
     15          7           0        1.618199   -1.026892   -0.000000
     16          1           0        1.997653   -2.000219   -0.000001
 ---------------------------------------------------------------------

 The electronic state is 1-A.
 Alpha  occ. eigenvalues --  -14.82038 -10.58909 -10.58300 -10.55481 -10.54780
 Alpha  occ. eigenvalues --  -10.54711 -10.54701 -10.54353 -10.53691  -1.10729
 Alpha  occ. eigenvalues --   -0.94618  -0.87622  -0.83984  -0.80129  -0.71268
 Alpha  occ. eigenvalues --   -0.67846  -0.66190  -0.61926  -0.55487  -0.54389
 Alpha  occ. eigenvalues --   -0.50870  -0.50528  -0.50106  -0.46797  -0.45176
 Alpha  occ. eigenvalues --   -0.41425  -0.40580  -0.39709  -0.33594  -0.28339
 Alpha  occ. eigenvalues --   -0.24147
 Alpha virt. eigenvalues --    0.00336   0.01008   0.02587   0.03143   0.04315
 Alpha virt. eigenvalues --    0.04633   0.05173   0.06617   0.06699   0.07003
 Alpha virt. eigenvalues --    0.07396   0.07519   0.09853   0.10330   0.10880

 Mulliken charges:
               1
     1  C   -0.270378
     2  H    0.217038
     3  C    0.063792
     4  H    0.212687
     5  C    1.036468
     6  C   -0.520570
     7  C   -0.050470
     8  C   -0.459066
     9  C   -0.075465
    10  C   -0.923744
    11  H    0.208095
    12  H    0.200144
    13  H    0.195792
    14  H    0.204047
    15  N   -0.478810
    16  H    0.440440
 Sum of Mulliken charges =  -0.00000

 Dipole moment (field-independent basis, Debye):
    X=              1.6803    Y=             -1.8466    Z=             -0.0000  Tot=              2.4967
 Quadrupole moment (field-independent basis, Debye-Ang):
   XX=            -44.7618   YY=            -44.4585   ZZ=            -59.2375
   XY=             -4.3345   XZ=             -0.0000   YZ=              0.0000

 Normal termination of Gaussian 16 at Wed Jun 13 08:41:25 2018.
