 Gaussian 16, Revision C.01,
 Gaussian 16:  ES64L-G16RevC.01  3-Jul-2019

 -------------------------------------------------------------
 # td=(nstates=6, root=1) LC-BLYP/6-31G(d) Opt density=current
 -------------------------------------------------------------

 ----------
 ImpLC-BLYP
 ----------
 Symbolic Z-matrix:
 Charge =  0 Multiplicity = 1

 SCF Done:  E(RLC-B+HF-LYP) =  -362.719258811     A.U. after   15 cycles
 Total Energy, E(TD-HF/TD-DFT) =  -362.524842386
 SCF Done:  E(RLC-B+HF-LYP) =  -362.716026056     A.U. after   14 cycles
 Total Energy, E(TD-HF/TD-DFT) =  -362.527897698
 SCF Done:  E(RLC-B+HF-LYP) =  -362.714756149     A.U. after   13 cycles
 Total Energy, E(TD-HF/TD-DFT) =  -362.528194282
 SCF Done:  E(RLC-B+HF-LYP) =  -362.714577227     A.U. after   10 cycles
 Total Energy, E(TD-HF/TD-DFT) =  -362.528220426
 SCF Done:  E(RLC-B+HF-LYP) =  -362.714617704     A.U. after   10 cycles

 Excitation energies and oscillator strengths:

 Excited State   1:      Singlet-A      5.0720 eV  244.45 nm  f=0.0637  <S**2>=0.000
      30 -> 32        -0.52673
      30 -> 33         0.13443
      31 -> 32         0.33683
      31 -> 33         0.27686
 This state for optimization and/or second-order correction.
 Total Energy, E(TD-HF/TD-DFT) =  -362.528223651
 Copying the excited state density for this state as the 1-particle RhoCI density.

 Excited State   2:      Singlet-A      5.4494 eV  227.52 nm  f=0.1090  <S**2>=0.000
      30 -> 32        -0.30568
      30 -> 33        -0.22639
      31 -> 32        -0.55526
      31 -> 33         0.19183

 Excited State   3:      Singlet-A      6.9049 eV  179.56 nm  f=0.8853  <S**2>=0.000
      30 -> 32        -0.33299
      30 -> 33         0.10584
      31 -> 33        -0.59858

 Excited State   4:      Singlet-A      7.0125 eV  176.80 nm  f=0.2652  <S**2>=0.000
      30 -> 33        -0.63010
      31 -> 32         0.25781
      31 -> 33        -0.10744

 Excited State   5:      Singlet-A      7.6120 eV  162.88 nm  f=0.0615  <S**2>=0.000
      29 -> 32         0.59171
      31 -> 35         0.34535

 Excited State   6:      Singlet-A      7.9558 eV  155.84 nm  f=0.0004  <S**2>=0.000
      27 -> 34         0.13142
      29 -> 34         0.17200
      30 -> 34         0.12973
      31 -> 34        -0.64427

 Optimization completed.
    -- Stationary point found.

                         Standard orientation:
 ---------------------------------------------------------------------
 Center     Atomic      Atomic             Coordinates (Angstroms)
 Number     Number       Type             X           Y           Z
 ---------------------------------------------------------------------
      1          6           0       -2.132879    0.705695    0.000064
      2          6           0       -2.153261   -0.698254    0.000056
      3          6           0       -0.952787   -1.431477   -0.000029
      4          6           0        0.233627   -0.679995   -0.000067
      5          6           0        0.271030    0.768190   -0.000054
      6          6           0       -0.939524    1.464985   -0.000019
      7          7           0        1.512519   -1.089879   -0.000064
      8          6           0        1.648258    1.137623   -0.000190
      9          6           0        2.394389    0.005429    0.000255
     10          1           0        1.800526   -2.056912    0.000282
     11          1           0        2.033111    2.147496   -0.000354
     12          1           0        3.461567   -0.148063    0.000362
     13          1           0       -3.104780   -1.215069    0.000084
     14          1           0       -0.938732   -2.514291   -0.000089
     15          1           0       -3.079769    1.235785    0.000102
     16          1           0       -0.972671    2.547031   -0.000033
 ---------------------------------------------------------------------

 The electronic state is 1-A.
 Alpha  occ. eigenvalues --  -14.29369 -10.18816 -10.18444 -10.15384 -10.15156
 Alpha  occ. eigenvalues --  -10.15103 -10.14749 -10.14224 -10.13962  -1.14439
 Alpha  occ. eigenvalues --   -0.99643  -0.94520  -0.88333  -0.87348  -0.77162
 Alpha  occ. eigenvalues --   -0.73528  -0.72213  -0.67483  -0.61941  -0.60045
 Alpha  occ. eigenvalues --   -0.56264  -0.56025  -0.55559  -0.53668  -0.51617
 Alpha  occ. eigenvalues --   -0.46956  -0.45628  -0.45245  -0.39573  -0.30890
 Alpha  occ. eigenvalues --   -0.29915
 Alpha virt. eigenvalues --    0.07924   0.12838   0.18002   0.18542   0.21279
 Alpha virt. eigenvalues --    0.23676   0.25039   0.27165   0.28541   0.29566
 Alpha virt. eigenvalues --    0.31175   0.33071   0.37628   0.39331   0.41473

 Mulliken charges:
               1
     1  C   -0.131573
     2  C   -0.176755
     3  C   -0.189658
     4  C    0.300569
     5  C    0.101529
     6  C   -0.232643
     7  N   -0.648225
     8  C   -0.206856
     9  C   -0.002992
    10  H    0.342261
    11  H    0.149511
    12  H    0.162431
    13  H    0.131662
    14  H    0.124498
    15  H    0.141418
    16  H    0.134822
 Sum of Mulliken charges =  -0.00000

 Dipole moment (field-independent basis, Debye):
    X=              1.7018    Y=             -1.3309    Z=              0.0005  Tot=              2.1604
 Quadrupole moment (field-independent basis, Debye-Ang):
   XX=            -44.5230   YY=            -44.0593   ZZ=            -56.7689
   XY=             -3.9277   XZ=              0.0012   YZ=             -0.0016

 Normal termination of Gaussian 16 at Mon Jun 29 09:22:01 2020.
