 Q-Chem 5.3, Q-Chem, Inc., Pleasanton, CA (2020)
 Q-Chem 5.3.1 for Intel X86 EM64T Linux

User input:
--------------------------------------------------------------
$molecule
0 1
C         2.1665374654   -0.6554056232    0.0000000000
C         2.1169746126    0.7536230414    0.0000000000
C         0.9078293763    1.4297941068    0.0000000000
C        -0.2602955279    0.6603427264    0.0000000000
N        -1.5823227859    1.0465645945    0.0000000000
H        -1.9138448994    1.9970952131    0.0000000000
C        -2.3831006726   -0.0753467300    0.0000000000
C        -1.6031102305   -1.1965127142    0.0000000000
C        -0.2354025284   -0.7544080528    0.0000000000
C         1.0061117308   -1.4110304737    0.0000000000
H         3.1323502333   -1.1522732729    0.0000000000
H         3.0445811710    1.3187694778    0.0000000000
H         0.8711978004    2.5159935936    0.0000000000
H        -3.4599415153    0.0224367365    0.0000000000
H        -1.9589772753   -2.2174458375    0.0000000000
H         1.0526344532   -2.4968312448    0.0000000000
$end

$rem
BASIS  =  6-31+G*
GUI  =  2
JOB_TYPE  =  Optimization
METHOD  = CAM-B3LYP
SCF_CONVERGENCE  =  8
THRESH = 12
CIS_N_ROOTS  = 3
CIS_SINGLETS = true
CIS_TRIPLETS = false
CIS_STATE_DERIV = 1
$end
--------------------------------------------------------------

   15    -363.6248073995      3.59e-09  Convergence criterion met
 Total energy in the final basis set =     -363.6248073995
   12    -363.6207677114      8.65e-09  Convergence criterion met
 Total energy in the final basis set =     -363.6207677114
   11    -363.6202466917      8.31e-09  Convergence criterion met
 Total energy in the final basis set =     -363.6202466917
   11    -363.6200328714      2.03e-09  Convergence criterion met
 Total energy in the final basis set =     -363.6200328714

             Standard Nuclear Orientation (Angstroms)
    I     Atom           X                Y                Z
 ----------------------------------------------------------------
    1      C       2.1607780615    -0.6851369219     0.0000000000
    2      C       2.1547063074     0.7352921335     0.0000000000
    3      C       0.9347184284     1.4505163417     0.0000000000
    4      C      -0.2477251230     0.6821951306     0.0000000000
    5      N      -1.5480452505     1.0733464811     0.0000000000
    6      H      -1.8590643155     2.0336579467     0.0000000000
    7      C      -2.4097980007    -0.0400469387     0.0000000000
    8      C      -1.6358758507    -1.1720959785     0.0000000000
    9      C      -0.2612151529    -0.7732265269     0.0000000000
   10      C       0.9669157992    -1.4573587722     0.0000000000
   11      H       3.1154037952    -1.2018093588     0.0000000000
   12      H       3.0972249660     1.2704020321     0.0000000000
   13      H       0.9102755779     2.5348816555     0.0000000000
   14      H      -3.4805507960     0.0931309476     0.0000000000
   15      H      -2.0077147425    -2.1876674146     0.0000000000
   16      H       1.0118557887    -2.5406702957     0.0000000000
 ----------------------------------------------------------------

    9    -363.6200384992      5.12e-09  Convergence criterion met
 Total energy in the final basis set =     -363.6200384992

         TDDFT/TDA Excitation Energies
 ---------------------------------------------------

 Excited state   1: excitation energy (eV) =    4.9034
 Total energy for state  1:                  -363.43984361 au
    Multiplicity: Singlet
    Trans. Mom.:  0.4309 X   0.4874 Y   0.0000 Z
    Strength   :     0.0508410468
    D(   30) --> V(    1) amplitude =  0.7615
    D(   31) --> V(    1) amplitude =  0.3501
    D(   31) --> V(    5) amplitude =  0.4691

 Excited state   2: excitation energy (eV) =    5.1473
 Total energy for state  2:                  -363.43087887 au
    Multiplicity: Singlet
    Trans. Mom.: -0.7426 X   0.6294 Y   0.0000 Z
    Strength   :     0.1195045056
    D(   30) --> V(    1) amplitude = -0.2918
    D(   30) --> V(    5) amplitude = -0.3099
    D(   31) --> V(    1) amplitude =  0.8392
    D(   31) --> V(    5) amplitude = -0.2624

 Excited state   3: excitation energy (eV) =    5.3115
 Total energy for state  3:                  -363.42484280 au
    Multiplicity: Singlet
    Trans. Mom.:  0.0000 X  -0.0000 Y  -0.1438 Z
    Strength   :     0.0026908939
    D(   31) --> V(    2) amplitude =  0.9665

 ---------------------------------------------------

 Final energy is   -363.439843606869
 **  OPTIMIZATION CONVERGED  **

             Orbital Energies (a.u.) and Symmetries
 --------------------------------------------------------------

 Alpha MOs, Restricted
 -- Occupied --
-14.459 -10.303 -10.301 -10.270 -10.267 -10.267 -10.265 -10.260
  1 A'    2 A'    3 A'    4 A'    5 A'    6 A'    7 A'    8 A'
-10.257  -1.065  -0.915  -0.867  -0.811  -0.799  -0.703  -0.671
  9 A'   10 A'   11 A'   12 A'   13 A'   14 A'   15 A'   16 A'
 -0.656  -0.611  -0.560  -0.540  -0.503  -0.499  -0.494  -0.479
 17 A'   18 A'   19 A'   20 A'   21 A'   22 A'    1 A"   23 A'
 -0.462  -0.420  -0.402  -0.397  -0.344  -0.272  -0.261
 24 A'   25 A'   26 A'    2 A"    3 A"    4 A"    5 A"

 Beta MOs, Restricted
 -- Occupied --
-14.459 -10.303 -10.301 -10.270 -10.267 -10.267 -10.265 -10.260
  1 A'    2 A'    3 A'    4 A'    5 A'    6 A'    7 A'    8 A'
-10.257  -1.065  -0.915  -0.867  -0.811  -0.799  -0.703  -0.671
  9 A'   10 A'   11 A'   12 A'   13 A'   14 A'   15 A'   16 A'
 -0.656  -0.611  -0.560  -0.540  -0.503  -0.499  -0.494  -0.479
 17 A'   18 A'   19 A'   20 A'   21 A'   22 A'    1 A"   23 A'
 -0.462  -0.420  -0.402  -0.397  -0.344  -0.272  -0.261
 24 A'   25 A'   26 A'    2 A"    3 A"    4 A"    5 A"

          Ground-State Mulliken Net Atomic Charges

     Atom                 Charge (a.u.)
  ----------------------------------------
      1 C                    -0.006399
      2 C                    -0.416922
      3 C                    -0.174791
      4 C                    -0.710485
      5 N                    -0.532485
      6 H                     0.418111
      7 C                    -0.240731
      8 C                     0.119474
      9 C                     1.093564
     10 C                    -0.684577
     11 H                     0.177620
     12 H                     0.183301
     13 H                     0.185287
     14 H                     0.201648
     15 H                     0.197079
     16 H                     0.190306
  ----------------------------------------
  Sum of atomic charges =     0.000000

                    Cartesian Multipole Moments
 -----------------------------------------------------------------
    Charge (ESU x 10^10)
                -0.0000
    Dipole Moment (Debye)
         X      -1.5993      Y       1.5066      Z       0.0000
       Tot       2.1972
    Quadrupole Moments (Debye-Ang)
        XX     -45.5638     XY      -2.9610     YY     -44.5925
        XZ      -0.0000     YZ      -0.0000     ZZ     -59.3553

 Total job time:  366.68s(wall), 1456.00s(cpu)
        *  Thank you very much for using Q-Chem.  Have a nice day.  *
