 Q-Chem 5.1, Q-Chem, Inc., Pleasanton, CA (2018)
 Q-Chem 5.1.2 for Intel X86 EM64T Linux

User input:
--------------------------------------------------------------

$molecule
0 1
C         2.1665374654   -0.6554056232    0.0000000000
C         2.1169746126    0.7536230414    0.0000000000
C         0.9078293763    1.4297941068    0.0000000000
C        -0.2602955279    0.6603427264    0.0000000000
N        -1.5823227859    1.0465645945    0.0000000000
H        -1.9138448994    1.9970952131    0.0000000000
C        -2.3831006726   -0.0753467300    0.0000000000
C        -1.6031102305   -1.1965127142    0.0000000000
C        -0.2354025284   -0.7544080528    0.0000000000
C         1.0061117308   -1.4110304737    0.0000000000
H         3.1323502333   -1.1522732729    0.0000000000
H         3.0445811710    1.3187694778    0.0000000000
H         0.8711978004    2.5159935936    0.0000000000
H        -3.4599415153    0.0224367365    0.0000000000
H        -1.9589772753   -2.2174458375    0.0000000000
H         1.0526344532   -2.4968312448    0.0000000000
$end

$rem
BASIS  =  6-31+G*
GUI  =  2
JOB_TYPE  =  Optimization
METHOD  = SVWN5
SCF_CONVERGENCE  =  8
THRESH = 12
CIS_N_ROOTS  = 3
CIS_SINGLETS = true
CIS_TRIPLETS = false
CIS_STATE_DERIV = 2
$end
--------------------------------------------------------------

   15    -360.5717034630      4.16e-09  Convergence criterion met
 Total energy in the final basis set =     -360.5717034630
   13    -360.5673541867      1.75e-09  Convergence criterion met
 Total energy in the final basis set =     -360.5673541867
   12    -360.5602002552      7.65e-09  Convergence criterion met
 Total energy in the final basis set =     -360.5602002552
   12    -360.5647845528      2.49e-09  Convergence criterion met
 Total energy in the final basis set =     -360.5647845528
   12    -360.5637667193      3.77e-09  Convergence criterion met
 Total energy in the final basis set =     -360.5637667193
   12    -360.5642222146      2.55e-09  Convergence criterion met
 Total energy in the final basis set =     -360.5642222146
   11    -360.5635856047      2.76e-09  Convergence criterion met
 Total energy in the final basis set =     -360.5635856047
   10    -360.5637294663      9.15e-09  Convergence criterion met
   13    -360.5603481032      5.01e-09  Convergence criterion met
 Total energy in the final basis set =     -360.5603481032
   12    -360.5670061156      8.81e-09  Convergence criterion met
 Total energy in the final basis set =     -360.5670061156
   12    -360.5685433924      5.72e-09  Convergence criterion met
 Total energy in the final basis set =     -360.5685433924
   12    -360.5687068940      3.76e-09  Convergence criterion met
 Total energy in the final basis set =     -360.5687068940
   11    -360.5689759440      3.83e-09  Convergence criterion met
 Total energy in the final basis set =     -360.5689759440
   10    -360.5687940801      5.93e-09  Convergence criterion met
 Total energy in the final basis set =     -360.5687940801

             Standard Nuclear Orientation (Angstroms)
    I     Atom           X                Y                Z
 ----------------------------------------------------------------
    1      C       2.1685325585    -0.6978756120     0.0000000000
    2      C       2.1484295243     0.7367101677     0.0000000000
    3      C       0.9327130164     1.4432317357     0.0000000000
    4      C      -0.2487490473     0.6805688405     0.0000000000
    5      N      -1.5647039813     1.0806405836     0.0000000000
    6      H      -1.8794060115     2.0507782244     0.0000000000
    7      C      -2.4051525671    -0.0213311622     0.0000000000
    8      C      -1.6145890985    -1.1727691116     0.0000000000
    9      C      -0.2584027648    -0.7731439468     0.0000000000
   10      C       0.9652681170    -1.4615418913     0.0000000000
   11      H       3.1349232973    -1.2159076760     0.0000000000
   12      H       3.0971486550     1.2857455718     0.0000000000
   13      H       0.9119478152     2.5403903774     0.0000000000
   14      H      -3.4901498773     0.0958994875     0.0000000000
   15      H      -1.9933964442    -2.1982390265     0.0000000000
   16      H       0.9974763007    -2.5577461008     0.0000000000
 ----------------------------------------------------------------

    9    -360.5688122991      4.94e-09  Convergence criterion met
 Total energy in the final basis set =     -360.5688122991

         TDDFT/TDA Excitation Energies
 ---------------------------------------------------

 Excited state   1: excitation energy (eV) =    4.4537
 Total energy for state  1:                  -360.40514061 au
    Multiplicity: Singlet
    Trans. Mom.: -0.5006 X   0.6010 Y  -0.0000 Z
    Strength   :     0.0667569038
    D( 29) --> V(  1) amplitude =  0.2455
    D( 31) --> V(  1) amplitude =  0.8890

 Excited state   2: excitation energy (eV) =    4.5343
 Total energy for state  2:                  -360.40217991 au
    Multiplicity: Singlet
    Trans. Mom.: -0.3024 X  -0.1661 Y  -0.0000 Z
    Strength   :     0.0132233646
    D( 30) --> V(  1) amplitude =  0.7461
    D( 31) --> V(  2) amplitude = -0.6524

 Excited state   3: excitation energy (eV) =    5.6492
 Total energy for state  3:                  -360.36120665 au
    Multiplicity: Singlet
    Trans. Mom.: -0.6127 X   0.0401 Y  -0.0000 Z
    Strength   :     0.0521864167
    D( 29) --> V(  1) amplitude = -0.5488
    D( 30) --> V(  2) amplitude =  0.3028
    D( 31) --> V(  2) amplitude =  0.2292
    D( 31) --> V(  6) amplitude = -0.6435

 ---------------------------------------------------

 Final energy is   -360.40217991068113
 **  OPTIMIZATION CONVERGED  **

             Orbital Energies (a.u.) and Symmetries
 --------------------------------------------------------------

 Alpha MOs, Restricted
 -- Occupied --
-13.935  -9.835  -9.834  -9.805  -9.800  -9.800  -9.799  -9.797
  1 A'    2 A'    3 A'    4 A'    5 A'    6 A'    7 A'    8 A'
 -9.791  -0.901  -0.755  -0.710  -0.661  -0.645  -0.567  -0.540
  9 A'   10 A'   11 A'   12 A'   13 A'   14 A'   15 A'   16 A'
 -0.524  -0.487  -0.438  -0.421  -0.394  -0.385  -0.384  -0.364
 17 A'   18 A'   19 A'   20 A'   21 A'   22 A'    1 A"   23 A'
 -0.352  -0.315  -0.300  -0.297  -0.257  -0.205  -0.189
 24 A'   25 A'    2 A"   26 A'    3 A"    4 A"    5 A"

 Beta MOs, Restricted
 -- Occupied --
-13.935  -9.835  -9.834  -9.805  -9.800  -9.800  -9.799  -9.797
  1 A'    2 A'    3 A'    4 A'    5 A'    6 A'    7 A'    8 A'
 -9.791  -0.901  -0.755  -0.710  -0.661  -0.645  -0.567  -0.540
  9 A'   10 A'   11 A'   12 A'   13 A'   14 A'   15 A'   16 A'
 -0.524  -0.487  -0.438  -0.421  -0.394  -0.385  -0.384  -0.364
 17 A'   18 A'   19 A'   20 A'   21 A'   22 A'    1 A"   23 A'
 -0.352  -0.315  -0.300  -0.297  -0.257  -0.205  -0.189
 24 A'   25 A'    2 A"   26 A'    3 A"    4 A"    5 A"

          Ground-State Mulliken Net Atomic Charges

     Atom                 Charge (a.u.)
  ----------------------------------------
      1 C                     0.003355
      2 C                    -0.487295
      3 C                    -0.026409
      4 C                    -1.213481
      5 N                    -0.424266
      6 H                     0.419694
      7 C                    -0.287774
      8 C                     0.189004
      9 C                     1.208686
     10 C                    -0.596368
     11 H                     0.193280
     12 H                     0.196024
     13 H                     0.198089
     14 H                     0.214445
     15 H                     0.209563
     16 H                     0.203454
  ----------------------------------------
  Sum of atomic charges =    -0.000000

                    Cartesian Multipole Moments
 -----------------------------------------------------------------
    Charge (ESU x 10^10)
                -0.0000
    Dipole Moment (Debye)
         X      -1.6383      Y       1.6577      Z      -0.0000
       Tot       2.3306
    Quadrupole Moments (Debye-Ang)
        XX     -45.2257     XY      -3.3019     YY     -44.1471
        XZ       0.0000     YZ      -0.0000     ZZ     -59.4731

 Total job time:  1375.81s(wall), 4882.03s(cpu)
        *  Thank you very much for using Q-Chem.  Have a nice day.  *
