 Q-Chem 5.1, Q-Chem, Inc., Pleasanton, CA (2018)
 Q-Chem 5.1.2 for Intel X86 EM64T Linux

User input:
--------------------------------------------------------------

$molecule
0 1
C         2.1665374654   -0.6554056232    0.0000000000
C         2.1169746126    0.7536230414    0.0000000000
C         0.9078293763    1.4297941068    0.0000000000
C        -0.2602955279    0.6603427264    0.0000000000
N        -1.5823227859    1.0465645945    0.0000000000
H        -1.9138448994    1.9970952131    0.0000000000
C        -2.3831006726   -0.0753467300    0.0000000000
C        -1.6031102305   -1.1965127142    0.0000000000
C        -0.2354025284   -0.7544080528    0.0000000000
C         1.0061117308   -1.4110304737    0.0000000000
H         3.1323502333   -1.1522732729    0.0000000000
H         3.0445811710    1.3187694778    0.0000000000
H         0.8711978004    2.5159935936    0.0000000000
H        -3.4599415153    0.0224367365    0.0000000000
H        -1.9589772753   -2.2174458375    0.0000000000
H         1.0526344532   -2.4968312448    0.0000000000
$end

$rem
BASIS  =  6-31+G*
GUI  =  2
JOB_TYPE  =  Optimization
METHOD  = PBE
SCF_CONVERGENCE  =  8
THRESH = 12
CIS_N_ROOTS  = 3
CIS_SINGLETS = true
CIS_TRIPLETS = false
CIS_STATE_DERIV = 1
$end
--------------------------------------------------------------

   15    -363.3711304688      3.61e-09  Convergence criterion met
 Total energy in the final basis set =     -363.3711304688
   12    -363.3657124630      5.52e-09  Convergence criterion met
 Total energy in the final basis set =     -363.3657124630
   12    -363.3611358089      2.06e-09  Convergence criterion met
 Total energy in the final basis set =     -363.3611358089
   11    -363.3593662603      8.89e-09  Convergence criterion met
 Total energy in the final basis set =     -363.3593662603
   10    -363.3594514402      4.49e-09  Convergence criterion met
 Total energy in the final basis set =     -363.3594514402

             Standard Nuclear Orientation (Angstroms)
    I     Atom           X                Y                Z
 ----------------------------------------------------------------
    1      C       2.1915600285    -0.6895354086     0.0000000000
    2      C       2.1570064611     0.7099737895     0.0000000000
    3      C       0.9407739404     1.4693330215     0.0000000000
    4      C      -0.2309731786     0.6412005816     0.0000000000
    5      N      -1.6121421084     1.0600040890     0.0000000000
    6      H      -1.9085948025     2.0363555729     0.0000000000
    7      C      -2.4475440558     0.0087713635     0.0000000000
    8      C      -1.6308378571    -1.1640248281     0.0000000000
    9      C      -0.2226752135    -0.7444669519     0.0000000000
   10      C       0.9996061250    -1.4892753542     0.0000000000
   11      H       3.1665253993    -1.1894162665     0.0000000000
   12      H       3.1076696835     1.2565778450     0.0000000000
   13      H       0.9158066560     2.5600723420     0.0000000000
   14      H      -3.5309267133     0.1165565734     0.0000000000
   15      H      -2.0125053390    -2.1860788667     0.0000000000
   16      H       1.0191404669    -2.5806370409     0.0000000000
 ----------------------------------------------------------------

    9    -363.3595462821      7.79e-09  Convergence criterion met
 Total energy in the final basis set =     -363.3595462821

         TDDFT/TDA Excitation Energies
 ---------------------------------------------------

 Excited state   1: excitation energy (eV) =    3.8342
 Total energy for state  1:                  -363.21864176 au
    Multiplicity: Singlet
    Trans. Mom.:  0.4861 X  -0.5138 Y   0.0000 Z
    Strength   :     0.0469973495
    D( 29) --> V(  1) amplitude = -0.2870
    D( 31) --> V(  1) amplitude =  0.9092

 Excited state   2: excitation energy (eV) =    4.2691
 Total energy for state  2:                  -363.20266035 au
    Multiplicity: Singlet
    Trans. Mom.:  0.0000 X  -0.0000 Y   0.1008 Z
    Strength   :     0.0010633227
    D( 31) --> V(  2) amplitude =  0.9996

 Excited state   3: excitation energy (eV) =    4.5563
 Total energy for state  3:                  -363.19210682 au
    Multiplicity: Singlet
    Trans. Mom.:  0.0215 X  -0.1851 Y  -0.0000 Z
    Strength   :     0.0038762084
    D( 30) --> V(  1) amplitude =  0.7025
    D( 31) --> V(  3) amplitude =  0.6648

 ---------------------------------------------------

 Final energy is   -363.21864176328614
 **  OPTIMIZATION CONVERGED  **

             Orbital Energies (a.u.) and Symmetries
 --------------------------------------------------------------

 Alpha MOs, Restricted
 -- Occupied --
-14.059  -9.941  -9.940  -9.919  -9.911  -9.907  -9.907  -9.904
  1 A'    2 A'    3 A'    4 A'    5 A'    6 A'    7 A'    8 A'
 -9.896  -0.897  -0.762  -0.699  -0.669  -0.642  -0.567  -0.534
  9 A'   10 A'   11 A'   12 A'   13 A'   14 A'   15 A'   16 A'
 -0.519  -0.489  -0.431  -0.424  -0.390  -0.387  -0.372  -0.356
 17 A'   18 A'   19 A'   20 A'   21 A'   22 A'    1 A"   23 A'
 -0.345  -0.312  -0.300  -0.298  -0.240  -0.209  -0.174
 24 A'   25 A'   26 A'    2 A"    3 A"    4 A"    5 A"

 Beta MOs, Restricted
 -- Occupied --
-14.059  -9.941  -9.940  -9.919  -9.911  -9.907  -9.907  -9.904
  1 A'    2 A'    3 A'    4 A'    5 A'    6 A'    7 A'    8 A'
 -9.896  -0.897  -0.762  -0.699  -0.669  -0.642  -0.567  -0.534
  9 A'   10 A'   11 A'   12 A'   13 A'   14 A'   15 A'   16 A'
 -0.519  -0.489  -0.431  -0.424  -0.390  -0.387  -0.372  -0.356
 17 A'   18 A'   19 A'   20 A'   21 A'   22 A'    1 A"   23 A'
 -0.345  -0.312  -0.300  -0.298  -0.240  -0.209  -0.174
 24 A'   25 A'   26 A'    2 A"    3 A"    4 A"    5 A"

          Ground-State Mulliken Net Atomic Charges

     Atom                 Charge (a.u.)
  ----------------------------------------
      1 C                    -0.023346
      2 C                    -0.367695
      3 C                    -0.417768
      4 C                    -1.334789
      5 N                    -0.389616
      6 H                     0.410751
      7 C                    -0.189226
      8 C                    -0.147189
      9 C                     1.881302
     10 C                    -0.577453
     11 H                     0.185066
     12 H                     0.184690
     13 H                     0.193019
     14 H                     0.202976
     15 H                     0.191521
     16 H                     0.197758
  ----------------------------------------
  Sum of atomic charges =     0.000000

                    Cartesian Multipole Moments
 -----------------------------------------------------------------
    Charge (ESU x 10^10)
                -0.0000
    Dipole Moment (Debye)
         X      -1.3315      Y       1.7393      Z      -0.0000
       Tot       2.1904
    Quadrupole Moments (Debye-Ang)
        XX     -45.2723     XY      -3.7733     YY     -44.4163
        XZ       0.0000     YZ      -0.0000     ZZ     -59.3463

 Total job time:  348.82s(wall), 1243.86s(cpu)
        *  Thank you very much for using Q-Chem.  Have a nice day.  *
