 Q-Chem 5.3, Q-Chem, Inc., Pleasanton, CA (2020)
 Q-Chem 5.3.1 for Intel X86 EM64T Linux

User input:
--------------------------------------------------------------
$molecule
0 1
C         2.1665374654   -0.6554056232    0.0000000000
C         2.1169746126    0.7536230414    0.0000000000
C         0.9078293763    1.4297941068    0.0000000000
C        -0.2602955279    0.6603427264    0.0000000000
N        -1.5823227859    1.0465645945    0.0000000000
H        -1.9138448994    1.9970952131    0.0000000000
C        -2.3831006726   -0.0753467300    0.0000000000
C        -1.6031102305   -1.1965127142    0.0000000000
C        -0.2354025284   -0.7544080528    0.0000000000
C         1.0061117308   -1.4110304737    0.0000000000
H         3.1323502333   -1.1522732729    0.0000000000
H         3.0445811710    1.3187694778    0.0000000000
H         0.8711978004    2.5159935936    0.0000000000
H        -3.4599415153    0.0224367365    0.0000000000
H        -1.9589772753   -2.2174458375    0.0000000000
H         1.0526344532   -2.4968312448    0.0000000000
$end

$rem
BASIS  =  6-31+G*
GUI  =  2
JOB_TYPE  =  Optimization
METHOD  = wB97X
SCF_CONVERGENCE  =  8
THRESH = 12
CIS_N_ROOTS  = 3
CIS_SINGLETS = true
CIS_TRIPLETS = false
CIS_STATE_DERIV = 1
$end
--------------------------------------------------------------

   15    -363.7248351832      7.86e-09  Convergence criterion met
 Total energy in the final basis set =     -363.7248351832
   13    -363.7203959803      5.34e-09  Convergence criterion met
 Total energy in the final basis set =     -363.7203959803
   12    -363.7199914545      3.17e-09  Convergence criterion met
 Total energy in the final basis set =     -363.7199914545
   11    -363.7197918551      4.97e-09  Convergence criterion met
 Total energy in the final basis set =     -363.7197918551

             Standard Nuclear Orientation (Angstroms)
    I     Atom           X                Y                Z
 ----------------------------------------------------------------
    1      C       2.1613765029    -0.6870938557     0.0000000000
    2      C       2.1528600981     0.7354577526     0.0000000000
    3      C       0.9347452186     1.4552603231     0.0000000000
    4      C      -0.2493589320     0.6835528839     0.0000000000
    5      N      -1.5494853799     1.0749312451     0.0000000000
    6      H      -1.8605630396     2.0343459072     0.0000000000
    7      C      -2.4074356397    -0.0397035371     0.0000000000
    8      C      -1.6377231787    -1.1728663551     0.0000000000
    9      C      -0.2606619806    -0.7748612424     0.0000000000
   10      C       0.9690735417    -1.4619029533     0.0000000000
   11      H       3.1191187815    -1.2009997078     0.0000000000
   12      H       3.0974804179     1.2702433623     0.0000000000
   13      H       0.9111611676     2.5408523857     0.0000000000
   14      H      -3.4799596646     0.0936408879     0.0000000000
   15      H      -2.0116517104    -2.1889101973     0.0000000000
   16      H       1.0129132898    -2.5465364374     0.0000000000
 ----------------------------------------------------------------

    9    -363.7197920093      5.13e-09  Convergence criterion met
 Total energy in the final basis set =     -363.7197920093

         TDDFT/TDA Excitation Energies
 ---------------------------------------------------

 Excited state   1: excitation energy (eV) =    4.9986
 Total energy for state  1:                  -363.53609700 au
    Multiplicity: Singlet
    Trans. Mom.: -0.5114 X  -0.4441 Y  -0.0000 Z
    Strength   :     0.0561813569
    D(   30) --> V(    1) amplitude =  0.7868
    D(   31) --> V(    1) amplitude =  0.2648
    D(   31) --> V(    5) amplitude = -0.4790

 Excited state   2: excitation energy (eV) =    5.3212
 Total energy for state  2:                  -363.52423980 au
    Multiplicity: Singlet
    Trans. Mom.:  0.6963 X  -0.6720 Y   0.0000 Z
    Strength   :     0.1220757722
    D(   30) --> V(    1) amplitude = -0.2231
    D(   30) --> V(    5) amplitude =  0.3695
    D(   31) --> V(    1) amplitude =  0.8546

 Excited state   3: excitation energy (eV) =    6.0441
 Total energy for state  3:                  -363.49767461 au
    Multiplicity: Singlet
    Trans. Mom.: -0.0000 X   0.0000 Y  -0.1686 Z
    Strength   :     0.0042110267
    D(   31) --> V(    2) amplitude =  0.9096

 ---------------------------------------------------

 Final energy is   -363.536097000577
 **  OPTIMIZATION CONVERGED  **

             Orbital Energies (a.u.) and Symmetries
 --------------------------------------------------------------

 Alpha MOs, Restricted
 -- Occupied --
-14.463 -10.313 -10.312 -10.282 -10.279 -10.278 -10.277 -10.271
  1 A'    2 A'    3 A'    4 A'    5 A'    6 A'    7 A'    8 A'
-10.267  -1.114  -0.963  -0.916  -0.858  -0.847  -0.747  -0.715
  9 A'   10 A'   11 A'   12 A'   13 A'   14 A'   15 A'   16 A'
 -0.700  -0.654  -0.601  -0.581  -0.543  -0.539  -0.538  -0.518
 17 A'   18 A'   19 A'   20 A'   21 A'   22 A'    1 A"   23 A'
 -0.500  -0.457  -0.439  -0.439  -0.384  -0.305  -0.295
 24 A'   25 A'    2 A"   26 A'    3 A"    4 A"    5 A"

 Beta MOs, Restricted
 -- Occupied --
-14.463 -10.313 -10.312 -10.282 -10.279 -10.278 -10.277 -10.271
  1 A'    2 A'    3 A'    4 A'    5 A'    6 A'    7 A'    8 A'
-10.267  -1.114  -0.963  -0.916  -0.858  -0.847  -0.747  -0.715
  9 A'   10 A'   11 A'   12 A'   13 A'   14 A'   15 A'   16 A'
 -0.700  -0.654  -0.601  -0.581  -0.543  -0.539  -0.538  -0.518
 17 A'   18 A'   19 A'   20 A'   21 A'   22 A'    1 A"   23 A'
 -0.500  -0.457  -0.439  -0.439  -0.384  -0.305  -0.295
 24 A'   25 A'    2 A"   26 A'    3 A"    4 A"    5 A"

          Ground-State Mulliken Net Atomic Charges

     Atom                 Charge (a.u.)
  ----------------------------------------
      1 C                    -0.074090
      2 C                    -0.395162
      3 C                    -0.140270
      4 C                    -0.633408
      5 N                    -0.560513
      6 H                     0.429438
      7 C                    -0.239204
      8 C                     0.098163
      9 C                     0.804895
     10 C                    -0.529726
     11 H                     0.193430
     12 H                     0.199404
     13 H                     0.204117
     14 H                     0.218968
     15 H                     0.216020
     16 H                     0.207941
  ----------------------------------------
  Sum of atomic charges =     0.000000

                    Cartesian Multipole Moments
 -----------------------------------------------------------------
    Charge (ESU x 10^10)
                -0.0000
    Dipole Moment (Debye)
         X      -1.6011      Y       1.5163      Z      -0.0000
       Tot       2.2051
    Quadrupole Moments (Debye-Ang)
        XX     -44.8495     XY      -2.9760     YY     -43.9274
        XZ       0.0000     YZ      -0.0000     ZZ     -59.1922

 Total job time:  751.90s(wall), 2165.40s(cpu)
        *  Thank you very much for using Q-Chem.  Have a nice day.  *
