 Q-Chem 5.3, Q-Chem, Inc., Pleasanton, CA (2020)
 Q-Chem 5.3.1 for Intel X86 EM64T Linux

User input:
--------------------------------------------------------------
$molecule
0 1
C         2.1665374654   -0.6554056232    0.0000000000
C         2.1169746126    0.7536230414    0.0000000000
C         0.9078293763    1.4297941068    0.0000000000
C        -0.2602955279    0.6603427264    0.0000000000
N        -1.5823227859    1.0465645945    0.0000000000
H        -1.9138448994    1.9970952131    0.0000000000
C        -2.3831006726   -0.0753467300    0.0000000000
C        -1.6031102305   -1.1965127142    0.0000000000
C        -0.2354025284   -0.7544080528    0.0000000000
C         1.0061117308   -1.4110304737    0.0000000000
H         3.1323502333   -1.1522732729    0.0000000000
H         3.0445811710    1.3187694778    0.0000000000
H         0.8711978004    2.5159935936    0.0000000000
H        -3.4599415153    0.0224367365    0.0000000000
H        -1.9589772753   -2.2174458375    0.0000000000
H         1.0526344532   -2.4968312448    0.0000000000
$end

$rem
BASIS  =  6-31+G*
GUI  =  2
JOB_TYPE  =  Optimization
METHOD  = M06
SCF_CONVERGENCE  =  8
THRESH = 12
CIS_N_ROOTS  = 3
CIS_SINGLETS = true
CIS_TRIPLETS = false
CIS_STATE_DERIV = 1
$end
--------------------------------------------------------------

   15    -363.5486896308      6.06e-09  Convergence criterion met
 Total energy in the final basis set =     -363.5486896308
   12    -363.5431510641      9.84e-09  Convergence criterion met
 Total energy in the final basis set =     -363.5431510641
   12    -363.5404384723      3.27e-09  Convergence criterion met
 Total energy in the final basis set =     -363.5404384723
   10    -363.5405284454      9.68e-09  Convergence criterion met
 Total energy in the final basis set =     -363.5405284454

             Standard Nuclear Orientation (Angstroms)
    I     Atom           X                Y                Z
 ----------------------------------------------------------------
    1      C       2.1656110202    -0.7036927179     0.0000000000
    2      C       2.1222794885     0.6925808304     0.0000000000
    3      C       0.9064458690     1.4110612404     0.0000000000
    4      C      -0.2519701783     0.6749618408     0.0000000000
    5      N      -1.5842291448     1.0746512766     0.0000000000
    6      H      -1.9493512324     2.0464049772     0.0000000000
    7      C      -2.3645589692     0.0155002855     0.0000000000
    8      C      -1.5746295889    -1.1678200551     0.0000000000
    9      C      -0.2378031083    -0.7491013664     0.0000000000
   10      C       0.9903885580    -1.4425688992     0.0000000000
   11      H       3.1260554216    -1.2137925483     0.0000000000
   12      H       3.0533367435     1.2549378148     0.0000000000
   13      H       0.8987061877     2.4967284710     0.0000000000
   14      H      -3.4465200167     0.1380349366     0.0000000000
   15      H      -1.9630352934    -2.1804698051     0.0000000000
   16      H       1.0111637358    -2.5320058196     0.0000000000
 ----------------------------------------------------------------

    9    -363.5405094455      9.31e-09  Convergence criterion met
 Total energy in the final basis set =     -363.5405094455

         TDDFT/TDA Excitation Energies
 ---------------------------------------------------

 Excited state   1: excitation energy (eV) =    3.7848
 Total energy for state  1:                  -363.40141896 au
    Multiplicity: Singlet
    Trans. Mom.: -0.0000 X   0.0000 Y  -0.0918 Z
    Strength   :     0.0007809290
    D(   31) --> V(    1) amplitude =  0.9961

 Excited state   2: excitation energy (eV) =    4.4986
 Total energy for state  2:                  -363.37518924 au
    Multiplicity: Singlet
    Trans. Mom.:  0.0000 X  -0.0000 Y   0.0286 Z
    Strength   :     0.0000900503
    D(   31) --> V(    3) amplitude =  0.9934

 Excited state   3: excitation energy (eV) =    4.5563
 Total energy for state  3:                  -363.37307012 au
    Multiplicity: Singlet
    Trans. Mom.: -1.0005 X   0.6444 Y  -0.0000 Z
    Strength   :     0.1581013428
    D(   30) --> V(    7) amplitude =  0.2241
    D(   31) --> V(    2) amplitude =  0.9171

 ---------------------------------------------------

 Final energy is   -363.401418962672
 **  OPTIMIZATION CONVERGED  **

             Orbital Energies (a.u.) and Symmetries
 --------------------------------------------------------------

 Alpha MOs, Restricted
 -- Occupied --
-14.468 -10.297 -10.292 -10.264 -10.257 -10.257 -10.257 -10.254
  1 A'    2 A'    3 A'    4 A'    5 A'    6 A'    7 A'    8 A'
-10.246  -1.012  -0.856  -0.793  -0.756  -0.720  -0.640  -0.608
  9 A'   10 A'   11 A'   12 A'   13 A'   14 A'   15 A'   16 A'
 -0.592  -0.553  -0.492  -0.481  -0.453  -0.447  -0.443  -0.414
 17 A'   18 A'   19 A'   20 A'   21 A'    1 A"   22 A'   23 A'
 -0.399  -0.365  -0.352  -0.348  -0.291  -0.244  -0.208
 24 A'   25 A'    2 A"   26 A'    3 A"    4 A"    5 A"

 Beta MOs, Restricted
 -- Occupied --
-14.468 -10.297 -10.292 -10.264 -10.257 -10.257 -10.257 -10.254
  1 A'    2 A'    3 A'    4 A'    5 A'    6 A'    7 A'    8 A'
-10.246  -1.012  -0.856  -0.793  -0.756  -0.720  -0.640  -0.608
  9 A'   10 A'   11 A'   12 A'   13 A'   14 A'   15 A'   16 A'
 -0.592  -0.553  -0.492  -0.481  -0.453  -0.447  -0.443  -0.414
 17 A'   18 A'   19 A'   20 A'   21 A'    1 A"   22 A'   23 A'
 -0.399  -0.365  -0.352  -0.348  -0.291  -0.244  -0.208
 24 A'   25 A'    2 A"   26 A'    3 A"    4 A"    5 A"

          Ground-State Mulliken Net Atomic Charges

     Atom                 Charge (a.u.)
  ----------------------------------------
      1 C                    -0.032405
      2 C                    -0.443257
      3 C                     0.164215
      4 C                    -1.250857
      5 N                    -0.405749
      6 H                     0.418742
      7 C                    -0.205355
      8 C                     0.104809
      9 C                     0.911287
     10 C                    -0.397321
     11 H                     0.185789
     12 H                     0.181275
     13 H                     0.183888
     14 H                     0.197845
     15 H                     0.197260
     16 H                     0.189831
  ----------------------------------------
  Sum of atomic charges =     0.000000

                    Cartesian Multipole Moments
 -----------------------------------------------------------------
    Charge (ESU x 10^10)
                -0.0000
    Dipole Moment (Debye)
         X      -1.6166      Y       1.8132      Z       0.0000
       Tot       2.4292
    Quadrupole Moments (Debye-Ang)
        XX     -45.0284     XY      -4.2038     YY     -44.1807
        XZ       0.0000     YZ       0.0000     ZZ     -58.5361

 Total job time:  1716.03s(wall), 6822.51s(cpu)
        *  Thank you very much for using Q-Chem.  Have a nice day.  *
