 Gaussian 16, Revision B.01,
 Gaussian 16:  ES64L-G16RevB.01 20-Dec-2017

 -----------------------------------------------------
 # opt td=(root=2) LC-BLYP/6-31+g(d) geom=connectivity
 -----------------------------------------------------

 -------------------
 Title Card Required
 -------------------
 Symbolic Z-matrix:
 Charge =  0 Multiplicity = 1

 SCF Done:  E(RLC-B+HF-LYP) =  -362.725123602     A.U. after   16 cycles
 Total Energy, E(TD-HF/TD-DFT) =  -362.533949173
 SCF Done:  E(RLC-B+HF-LYP) =  -362.730287584     A.U. after   17 cycles
 Total Energy, E(TD-HF/TD-DFT) =  -362.546364355
 SCF Done:  E(RLC-B+HF-LYP) =  -362.729854595     A.U. after   14 cycles
 Total Energy, E(TD-HF/TD-DFT) =  -362.547307330
 SCF Done:  E(RLC-B+HF-LYP) =  -362.729224552     A.U. after   13 cycles
 Total Energy, E(TD-HF/TD-DFT) =  -362.547386850
 SCF Done:  E(RLC-B+HF-LYP) =  -362.729105034     A.U. after   12 cycles

 Excitation energies and oscillator strengths:

 Excited State   1:      Singlet-A      5.2821 eV  234.73 nm  f=0.1106  <S**2>=0.000
      30 -> 33        -0.34889
      30 -> 38        -0.18140
      31 -> 33        -0.51767
      31 -> 38         0.21871

 Excited State   2:      Singlet-A      4.9446 eV  250.75 nm  f=0.0738  <S**2>=0.000
      30 -> 33        -0.48652
      30 -> 38         0.15238
      31 -> 33         0.38382
      31 -> 38         0.21520
      31 -> 42        -0.11386
 This state for optimization and/or second-order correction.
 Total Energy, E(TD-HF/TD-DFT) =  -362.547394675
 Copying the excited state density for this state as the 1-particle RhoCI density.

 Excited State   3:      Singlet-A      5.8319 eV  212.60 nm  f=0.0018  <S**2>=0.000
      31 -> 32        -0.64279
      31 -> 34         0.11038
      31 -> 40        -0.12507

 Optimization completed.
    -- Stationary point found.

                         Standard orientation:
 ---------------------------------------------------------------------
 Center     Atomic      Atomic             Coordinates (Angstroms)
 Number     Number       Type             X           Y           Z
 ---------------------------------------------------------------------
      1          6           0        2.395656    0.001261    0.000000
      2          1           0        3.462788   -0.157564    0.000000
      3          6           0        1.653089    1.136024   -0.000001
      4          1           0        2.041301    2.145106   -0.000001
      5          6           0        0.272740    0.767342   -0.000000
      6          6           0       -0.934965    1.467754    0.000001
      7          6           0       -2.132663    0.708301    0.000000
      8          6           0       -2.156086   -0.696194   -0.000000
      9          6           0       -0.957159   -1.432573   -0.000000
     10          6           0        0.233650   -0.677828    0.000000
     11          1           0       -0.967668    2.550414    0.000001
     12          1           0       -3.078660    1.240669    0.000000
     13          1           0       -3.109661   -1.210305   -0.000000
     14          1           0       -0.944297   -2.516031   -0.000001
     15          7           0        1.508064   -1.090987    0.000000
     16          1           0        1.794178   -2.059904    0.000001
 ---------------------------------------------------------------------

 The electronic state is 1-A.
 Alpha  occ. eigenvalues --  -14.30534 -10.19850 -10.19608 -10.16536 -10.16311
 Alpha  occ. eigenvalues --  -10.16214 -10.15901 -10.15335 -10.15093  -1.15693
 Alpha  occ. eigenvalues --   -1.00748  -0.95625  -0.89354  -0.88455  -0.78227
 Alpha  occ. eigenvalues --   -0.74471  -0.73259  -0.68479  -0.62937  -0.61011
 Alpha  occ. eigenvalues --   -0.57314  -0.57006  -0.56564  -0.54743  -0.52643
 Alpha  occ. eigenvalues --   -0.47950  -0.46559  -0.46331  -0.40557  -0.31951
 Alpha  occ. eigenvalues --   -0.30918
 Alpha virt. eigenvalues --    0.04604   0.05472   0.06372   0.06763   0.08078
 Alpha virt. eigenvalues --    0.08404   0.09986   0.10568   0.10683   0.10937
 Alpha virt. eigenvalues --    0.11618   0.11652   0.13602   0.14792   0.14813

 Mulliken charges:
               1
     1  C   -0.243697
     2  H    0.208857
     3  C    0.125197
     4  H    0.204158
     5  C    0.991793
     6  C   -0.650365
     7  C   -0.025335
     8  C   -0.401411
     9  C   -0.187213
    10  C   -0.643853
    11  H    0.196894
    12  H    0.180502
    13  H    0.188459
    14  H    0.191533
    15  N   -0.554367
    16  H    0.418848
 Sum of Mulliken charges =  -0.00000

 Dipole moment (field-independent basis, Debye):
    X=              1.5856    Y=             -1.5200    Z=              0.0000  Tot=              2.1965
 Quadrupole moment (field-independent basis, Debye-Ang):
   XX=            -45.4912   YY=            -44.2316   ZZ=            -59.1831
   XY=             -2.8428   XZ=              0.0000   YZ=             -0.0000

 Normal termination of Gaussian 16 at Wed Jun 13 08:42:07 2018.
