 Q-Chem 5.1, Q-Chem, Inc., Pleasanton, CA (2018)
 Q-Chem 5.1.2 for Intel X86 EM64T Linux

User input:
--------------------------------------------------------------

$molecule
0 1
C         2.1665374654   -0.6554056232    0.0000000000
C         2.1169746126    0.7536230414    0.0000000000
C         0.9078293763    1.4297941068    0.0000000000
C        -0.2602955279    0.6603427264    0.0000000000
N        -1.5823227859    1.0465645945    0.0000000000
H        -1.9138448994    1.9970952131    0.0000000000
C        -2.3831006726   -0.0753467300    0.0000000000
C        -1.6031102305   -1.1965127142    0.0000000000
C        -0.2354025284   -0.7544080528    0.0000000000
C         1.0061117308   -1.4110304737    0.0000000000
H         3.1323502333   -1.1522732729    0.0000000000
H         3.0445811710    1.3187694778    0.0000000000
H         0.8711978004    2.5159935936    0.0000000000
H        -3.4599415153    0.0224367365    0.0000000000
H        -1.9589772753   -2.2174458375    0.0000000000
H         1.0526344532   -2.4968312448    0.0000000000
$end

$rem
BASIS  =  6-31+G*
GUI  =  2
JOB_TYPE  =  Optimization
METHOD  = SVWN5
SCF_CONVERGENCE  =  8
THRESH = 12
CIS_N_ROOTS  = 3
CIS_SINGLETS = true
CIS_TRIPLETS = false
CIS_STATE_DERIV = 1
$end
--------------------------------------------------------------

   15    -360.5717034630      4.16e-09  Convergence criterion met
 Total energy in the final basis set =     -360.5717034630
   13    -360.5650926809      1.46e-09  Convergence criterion met
 Total energy in the final basis set =     -360.5650926809
   12    -360.5605534800      2.91e-09  Convergence criterion met
 Total energy in the final basis set =     -360.5605534800
   11    -360.5597225111      4.88e-09  Convergence criterion met
 Total energy in the final basis set =     -360.5597225111
   10    -360.5597335555      4.77e-09  Convergence criterion met
 Total energy in the final basis set =     -360.5597335555

             Standard Nuclear Orientation (Angstroms)
    I     Atom           X                Y                Z
 ----------------------------------------------------------------
    1      C       2.1717142552    -0.6845903017     0.0000000000
    2      C       2.1361932706     0.7052830279     0.0000000000
    3      C       0.9299801129     1.4580966957     0.0000000000
    4      C      -0.2310740036     0.6362277195     0.0000000000
    5      N      -1.5946356397     1.0503382390     0.0000000000
    6      H      -1.8862479145     2.0317568505     0.0000000000
    7      C      -2.4263256854     0.0098240280     0.0000000000
    8      C      -1.6159110997    -1.1555274926     0.0000000000
    9      C      -0.2206054065    -0.7406559040     0.0000000000
   10      C       0.9909733572    -1.4791904392     0.0000000000
   11      H       3.1499774867    -1.1833051120     0.0000000000
   12      H       3.0896983211     1.2518454848     0.0000000000
   13      H       0.9051823262     2.5514922854     0.0000000000
   14      H      -3.5125348916     0.1185837579     0.0000000000
   15      H      -1.9955544973    -2.1816941703     0.0000000000
   16      H       1.0110595010    -2.5730742076     0.0000000000
 ----------------------------------------------------------------

    9    -360.5598090018      4.94e-09  Convergence criterion met
 Total energy in the final basis set =     -360.5598090018

         TDDFT/TDA Excitation Energies
 ---------------------------------------------------

 Excited state   1: excitation energy (eV) =    3.9070
 Total energy for state  1:                  -360.41622812
    Multiplicity: Singlet
    Trans. Mom.:  0.4819 X  -0.5189 Y   0.0000 Z
    Strength   :     0.0479982490
    D( 29) --> V(  1) amplitude = -0.2882
    D( 31) --> V(  1) amplitude =  0.9088

 Excited state   2: excitation energy (eV) =    4.4113
 Total energy for state  2:                  -360.39769810
    Multiplicity: Singlet
    Trans. Mom.: -0.0000 X  -0.0000 Y  -0.1010 Z
    Strength   :     0.0011025225
    D( 31) --> V(  2) amplitude =  0.9995

 Excited state   3: excitation energy (eV) =    4.6407
 Total energy for state  3:                  -360.38926726
    Multiplicity: Singlet
    Trans. Mom.:  0.0012 X  -0.1843 Y  -0.0000 Z
    Strength   :     0.0038623027
    D( 30) --> V(  1) amplitude =  0.7063
    D( 31) --> V(  3) amplitude = -0.6634

 ---------------------------------------------------

 Final energy is   -360.41622811777449
 **  OPTIMIZATION CONVERGED  **

             Orbital Energies (a.u.) and Symmetries
 --------------------------------------------------------------

 Alpha MOs, Restricted
 -- Occupied --
-13.931  -9.833  -9.833  -9.811  -9.803  -9.799  -9.799  -9.796
  1 A'    2 A'    3 A'    4 A'    5 A'    6 A'    7 A'    8 A'
 -9.788  -0.902  -0.764  -0.701  -0.669  -0.642  -0.570  -0.535
  9 A'   10 A'   11 A'   12 A'   13 A'   14 A'   15 A'   16 A'
 -0.521  -0.492  -0.432  -0.425  -0.396  -0.390  -0.384  -0.358
 17 A'   18 A'   19 A'   20 A'   21 A'   22 A'    1 A"   23 A'
 -0.348  -0.314  -0.307  -0.302  -0.248  -0.216  -0.180
 24 A'   25 A'    2 A"   26 A'    3 A"    4 A"    5 A"

 Beta MOs, Restricted
 -- Occupied --
-13.931  -9.833  -9.833  -9.811  -9.803  -9.799  -9.799  -9.796
  1 A'    2 A'    3 A'    4 A'    5 A'    6 A'    7 A'    8 A'
 -9.788  -0.902  -0.764  -0.701  -0.669  -0.642  -0.570  -0.535
  9 A'   10 A'   11 A'   12 A'   13 A'   14 A'   15 A'   16 A'
 -0.521  -0.492  -0.432  -0.425  -0.396  -0.390  -0.384  -0.358
 17 A'   18 A'   19 A'   20 A'   21 A'   22 A'    1 A"   23 A'
 -0.348  -0.314  -0.307  -0.302  -0.248  -0.216  -0.180
 24 A'   25 A'    2 A"   26 A'    3 A"    4 A"    5 A"

          Ground-State Mulliken Net Atomic Charges

     Atom                 Charge (a.u.)
  ----------------------------------------
      1 C                    -0.053217
      2 C                    -0.389378
      3 C                    -0.223369
      4 C                    -1.371226
      5 N                    -0.413287
      6 H                     0.415736
      7 C                    -0.220816
      8 C                    -0.037153
      9 C                     1.512531
     10 C                    -0.440901
     11 H                     0.194070
     12 H                     0.193169
     13 H                     0.204603
     14 H                     0.217421
     15 H                     0.202644
     16 H                     0.209171
  ----------------------------------------
  Sum of atomic charges =     0.000000

                    Cartesian Multipole Moments
 -----------------------------------------------------------------
    Charge (ESU x 10^10)
                 0.0000
    Dipole Moment (Debye)
         X      -1.3679      Y       1.7831      Z      -0.0000
       Tot       2.2473
    Quadrupole Moments (Debye-Ang)
        XX     -45.1423     XY      -3.8121     YY     -44.1973
        XZ       0.0000     YZ      -0.0000     ZZ     -59.4649

 Total job time:  287.91s(wall), 1020.59s(cpu)
        *  Thank you very much for using Q-Chem.  Have a nice day.  *
