 Gaussian 16, Revision B.01,
 Gaussian 16:  ES64L-G16RevB.01 20-Dec-2017

 -----------------------------------------------------
 # opt td=(root=1) LC-BLYP/6-31+g(d) geom=connectivity
 -----------------------------------------------------

 -------------------
 Title Card Required
 -------------------
 Symbolic Z-matrix:
 Charge =  0 Multiplicity = 1

 SCF Done:  E(RLC-B+HF-LYP) =  -362.725123602     A.U. after   16 cycles
 Total Energy, E(TD-HF/TD-DFT) =  -362.537758820
 SCF Done:  E(RLC-B+HF-LYP) =  -362.724652719     A.U. after   16 cycles
 Total Energy, E(TD-HF/TD-DFT) =  -362.547452920
 SCF Done:  E(RLC-B+HF-LYP) =  -362.722910137     A.U. after   15 cycles
 Total Energy, E(TD-HF/TD-DFT) =  -362.548208213
 SCF Done:  E(RLC-B+HF-LYP) =  -362.722408352     A.U. after   13 cycles
 Total Energy, E(TD-HF/TD-DFT) =  -362.548250593
 SCF Done:  E(RLC-B+HF-LYP) =  -362.722416226     A.U. after   11 cycles

 Excitation energies and oscillator strengths:

 Excited State   1:      Singlet-A      4.7392 eV  261.61 nm  f=0.2331  <S**2>=0.000
      30 -> 38         0.12809
      31 -> 33         0.67792
 This state for optimization and/or second-order correction.
 Total Energy, E(TD-HF/TD-DFT) =  -362.548253444
 Copying the excited state density for this state as the 1-particle RhoCI density.

 Excited State   2:      Singlet-A      5.1314 eV  241.62 nm  f=0.0119  <S**2>=0.000
      30 -> 33         0.53998
      31 -> 38        -0.37363
      31 -> 43         0.11895

 Excited State   3:      Singlet-A      5.4078 eV  229.27 nm  f=0.0055  <S**2>=0.000
      31 -> 32         0.66265
      31 -> 39        -0.12699

 Optimization completed.
    -- Stationary point found.

                         Standard orientation:
 ---------------------------------------------------------------------
 Center     Atomic      Atomic             Coordinates (Angstroms)
 Number     Number       Type             X           Y           Z
 ---------------------------------------------------------------------
      1          6           0        2.398813    0.044059   -0.000000
      2          1           0        3.475918   -0.032807   -0.000001
      3          6           0        1.555031    1.186738    0.000000
      4          1           0        1.909040    2.208785    0.000000
      5          6           0        0.238583    0.753669   -0.000000
      6          6           0       -1.022278    1.429982    0.000000
      7          6           0       -2.183331    0.636056   -0.000000
      8          6           0       -2.126504   -0.734431   -0.000000
      9          6           0       -0.861562   -1.444730    0.000000
     10          6           0        0.262450   -0.661338    0.000000
     11          1           0       -1.072969    2.512500    0.000001
     12          1           0       -3.152912    1.123432   -0.000000
     13          1           0       -3.043229   -1.314526   -0.000001
     14          1           0       -0.826768   -2.527796    0.000001
     15          7           0        1.602589   -1.033929   -0.000000
     16          1           0        1.925579   -1.992107    0.000000
 ---------------------------------------------------------------------

 The electronic state is 1-A.
 Alpha  occ. eigenvalues --  -14.31045 -10.20228 -10.19239 -10.16848 -10.16218
 Alpha  occ. eigenvalues --  -10.15997 -10.15795 -10.15392 -10.14496  -1.16238
 Alpha  occ. eigenvalues --   -1.01380  -0.95058  -0.90918  -0.87124  -0.78475
 Alpha  occ. eigenvalues --   -0.75046  -0.73038  -0.68789  -0.62499  -0.61345
 Alpha  occ. eigenvalues --   -0.57766  -0.57642  -0.56853  -0.53709  -0.52519
 Alpha  occ. eigenvalues --   -0.47633  -0.47116  -0.46857  -0.39788  -0.33775
 Alpha  occ. eigenvalues --   -0.29127
 Alpha virt. eigenvalues --    0.04456   0.04893   0.06348   0.06873   0.08087
 Alpha virt. eigenvalues --    0.08450   0.10165   0.10651   0.10665   0.10923
 Alpha virt. eigenvalues --    0.11654   0.11659   0.13717   0.14653   0.14862

 Mulliken charges:
               1
     1  C   -0.240800
     2  H    0.210849
     3  C    0.038263
     4  H    0.198504
     5  C    1.058479
     6  C   -0.567608
     7  C   -0.016788
     8  C   -0.399842
     9  C   -0.253993
    10  C   -0.683169
    11  H    0.195989
    12  H    0.185966
    13  H    0.184872
    14  H    0.193309
    15  N   -0.525021
    16  H    0.420989
 Sum of Mulliken charges =  -0.00000

 Dipole moment (field-independent basis, Debye):
    X=              1.6039    Y=             -1.7235    Z=              0.0000  Tot=              2.3544
 Quadrupole moment (field-independent basis, Debye-Ang):
   XX=            -44.9054   YY=            -44.7303   ZZ=            -59.2082
   XY=             -3.8040   XZ=              0.0000   YZ=             -0.0000

 Normal termination of Gaussian 16 at Tue Jun 12 14:56:47 2018.
