 Q-Chem 5.3, Q-Chem, Inc., Pleasanton, CA (2020)
 Q-Chem 5.3.1 for Intel X86 EM64T Linux

User input:
--------------------------------------------------------------
$molecule
0 1
C   -2.1510630    0.6892080    0.0000880
C   -2.1279270   -0.7158180    0.0000750
C   -0.9322970   -1.4131000   -0.0000110
C    0.2469110   -0.6702010   -0.0000420
C    0.2481930    0.7482990    0.0000000
C   -0.9794740    1.4235260    0.0000320
N    1.5617740   -1.0775920   -0.0002850
C    1.6201330    1.1629000   -0.0001570
C    2.3820130    0.0308060    0.0002480
H    1.8763150   -2.0300110    0.0004380
H    1.9921730    2.1730100   -0.0003480
H    3.4525490   -0.0824250    0.0004080
H   -3.0615940   -1.2620200    0.0000880
H   -0.9172520   -2.4953420   -0.0000730
H   -3.1042030    1.2007850    0.0000900
H   -1.0093480    2.5054210   -0.0000150
$end

$rem
BASIS  =  6-31+G*
GUI  =  2
JOB_TYPE  =  Optimization
METHOD  = BMK
SCF_CONVERGENCE  =  8
THRESH = 12
CIS_N_ROOTS  = 3
CIS_SINGLETS = true
CIS_TRIPLETS = false
CIS_STATE_DERIV = 1
MEM_STATIC=500
MEM_TOTAL=3000
$end
--------------------------------------------------------------

   15    -363.5812958563      3.28e-09  Convergence criterion met
 Total energy in the final basis set =     -363.5812958563
   12    -363.5783074874      6.43e-09  Convergence criterion met
 Total energy in the final basis set =     -363.5783074874
   11    -363.5778104679      6.16e-09  Convergence criterion met
 Total energy in the final basis set =     -363.5778104679
   10    -363.5775648245      6.48e-09  Convergence criterion met
 Total energy in the final basis set =     -363.5775648245

             Standard Nuclear Orientation (Angstroms)
    I     Atom           X                Y                Z
 ----------------------------------------------------------------
    1      C       2.1772227760    -0.6829257810    -0.0000311639
    2      C       2.1716733717     0.7418880981     0.0000105340
    3      C       0.9339331874     1.4573590423     0.0000483511
    4      C      -0.2489578501     0.6791593857     0.0000334853
    5      C      -0.2627037096    -0.7801494655    -0.0000297448
    6      C       0.9743311996    -1.4654803437    -0.0000374033
    7      N      -1.5523919785     1.0659236333     0.0000717980
    8      C      -1.6514187695    -1.1818721532     0.0000132992
    9      C      -2.4263687786    -0.0342709159     0.0001057574
   10      H      -1.8608031384     2.0292800194     0.0003700562
   11      H      -2.0264243630    -2.1987730214    -0.0000378642
   12      H      -3.4980883712     0.1103739595     0.0000548877
   13      H       3.1137741188     1.2827278536     0.0000070496
   14      H       0.9028407424     2.5445065216     0.0000434760
   15      H       3.1333027991    -1.2035432471    -0.0000631426
   16      H       1.0231737151    -2.5516510931    -0.0000333948
 ----------------------------------------------------------------

    8    -363.5775603353      8.71e-09  Convergence criterion met
 Total energy in the final basis set =     -363.5775603353

         TDDFT/TDA Excitation Energies
 ---------------------------------------------------

 Excited state   1: excitation energy (eV) =    4.9239
 Total energy for state  1:                  -363.39660925 au
    Multiplicity: Singlet
    Trans. Mom.: -0.2624 X  -0.5996 Y  -0.0000 Z
    Strength   :     0.0516766686
    D(   30) --> V(    1) amplitude =  0.6803
    D(   31) --> V(    1) amplitude = -0.5221
    D(   31) --> V(    3) amplitude = -0.4288

 Excited state   2: excitation energy (eV) =    5.1186
 Total energy for state  2:                  -363.38945417 au
    Multiplicity: Singlet
    Trans. Mom.: -0.7584 X   0.5579 Y   0.0001 Z
    Strength   :     0.1111595225
    D(   30) --> V(    1) amplitude =  0.4361
    D(   30) --> V(    3) amplitude =  0.2342
    D(   31) --> V(    1) amplitude =  0.7561
    D(   31) --> V(    3) amplitude = -0.3678

 Excited state   3: excitation energy (eV) =    5.7062
 Total energy for state  3:                  -363.36786314 au
    Multiplicity: Singlet
    Trans. Mom.: -0.0001 X   0.0000 Y  -0.1251 Z
    Strength   :     0.0021870109
    D(   31) --> V(    2) amplitude =  0.9764

 ---------------------------------------------------

 Final energy is   -363.396609252343
 **  OPTIMIZATION CONVERGED  **

                    Orbital Energies (a.u.)
 --------------------------------------------------------------

 Alpha MOs
 -- Occupied --
-14.7258 -10.5262 -10.5241 -10.4917 -10.4870 -10.4870 -10.4860 -10.4799
-10.4785  -1.0610  -0.8996  -0.8500  -0.7942  -0.7810  -0.6840  -0.6502
 -0.6353  -0.5893  -0.5386  -0.5178  -0.4786  -0.4738  -0.4705  -0.4536
 -0.4389  -0.3937  -0.3770  -0.3706  -0.3179  -0.2499  -0.2361

          Ground-State Mulliken Net Atomic Charges

     Atom                 Charge (a.u.)
  ----------------------------------------
      1 C                    -0.058533
      2 C                    -0.396493
      3 C                    -0.095955
      4 C                    -0.935666
      5 C                     1.043340
      6 C                    -0.503569
      7 N                    -0.521584
      8 C                     0.085654
      9 C                    -0.199945
     10 H                     0.415039
     11 H                     0.204209
     12 H                     0.212740
     13 H                     0.188493
     14 H                     0.187915
     15 H                     0.180100
     16 H                     0.194254
  ----------------------------------------
  Sum of atomic charges =     0.000000

                    Cartesian Multipole Moments
 -----------------------------------------------------------------
    Charge (ESU x 10^10)
                -0.0000
    Dipole Moment (Debye)
         X      -1.6162      Y       1.5321      Z       0.0004
       Tot       2.2270
    Quadrupole Moments (Debye-Ang)
        XX     -44.5070     XY      -2.9923     YY     -43.9120
        XZ      -0.0010     YZ       0.0015     ZZ     -59.4399

 Total job time:  796.29s(wall), 3165.59s(cpu)
        *  Thank you very much for using Q-Chem.  Have a nice day.  *
