 Q-Chem 5.3, Q-Chem, Inc., Pleasanton, CA (2020)
 Q-Chem 5.3.1 for Intel X86 EM64T Linux

User input:
--------------------------------------------------------------
$molecule
0 1
C   -2.1510630    0.6892080    0.0000880
C   -2.1279270   -0.7158180    0.0000750
C   -0.9322970   -1.4131000   -0.0000110
C    0.2469110   -0.6702010   -0.0000420
C    0.2481930    0.7482990    0.0000000
C   -0.9794740    1.4235260    0.0000320
N    1.5617740   -1.0775920   -0.0002850
C    1.6201330    1.1629000   -0.0001570
C    2.3820130    0.0308060    0.0002480
H    1.8763150   -2.0300110    0.0004380
H    1.9921730    2.1730100   -0.0003480
H    3.4525490   -0.0824250    0.0004080
H   -3.0615940   -1.2620200    0.0000880
H   -0.9172520   -2.4953420   -0.0000730
H   -3.1042030    1.2007850    0.0000900
H   -1.0093480    2.5054210   -0.0000150
$end

$rem
BASIS  =  6-31+G*
GUI  =  2
JOB_TYPE  =  Optimization
METHOD  = LDA
SCF_CONVERGENCE  =  8
THRESH = 12
CIS_N_ROOTS  = 3
CIS_SINGLETS = true
CIS_TRIPLETS = false
CIS_STATE_DERIV = 1
MEM_STATIC = 500
MEM_TOTAL = 3000
$end
--------------------------------------------------------------

   15    -360.5711562068      4.13e-09  Convergence criterion met
 Total energy in the final basis set =     -360.5711562068
   12    -360.5654333726      9.94e-09  Convergence criterion met
 Total energy in the final basis set =     -360.5654333726
   12    -360.5606768456      2.80e-09  Convergence criterion met
 Total energy in the final basis set =     -360.5606768456
   11    -360.5596874646      5.46e-09  Convergence criterion met
 Total energy in the final basis set =     -360.5596874646
   10    -360.5597163672      4.40e-09  Convergence criterion met
 Total energy in the final basis set =     -360.5597163672

             Standard Nuclear Orientation (Angstroms)
    I     Atom           X                Y                Z
 ----------------------------------------------------------------
    1      C       2.1720812374    -0.6837832400    -0.0000330876
    2      C       2.1359297512     0.7060569770     0.0000193399
    3      C       0.9293677133     1.4583323942     0.0000947550
    4      C      -0.2312945608     0.6359209961     0.0000889460
    5      C      -0.2201840194    -0.7409648561     0.0000306555
    6      C       0.9917229309    -1.4789438550    -0.0000262153
    7      N      -1.5950364577     1.0493925988     0.0001033546
    8      C      -1.6153016579    -1.1564888023    -0.0000039678
    9      C      -2.4262532067     0.0085008756     0.0000821021
   10      H      -1.8870990445     2.0306656257     0.0002470558
   11      H      -1.9944646973    -2.1828166127    -0.0000770488
   12      H      -3.5124989931     0.1167766730     0.0001297085
   13      H       3.0891701573     1.2530599049    -0.0000043233
   14      H       0.9040625232     2.5516998860     0.0000293800
   15      H       3.1505636368    -1.1820531344    -0.0000854812
   16      H       1.0123296386    -2.5728029382    -0.0000691925
 ----------------------------------------------------------------

    9    -360.5598081725      5.58e-09  Convergence criterion met
 Total energy in the final basis set =     -360.5598081725

         TDDFT/TDA Excitation Energies
 ---------------------------------------------------

 Excited state   1: excitation energy (eV) =    3.9070
 Total energy for state  1:                  -360.41622793 au
    Multiplicity: Singlet
    Trans. Mom.:  0.4821 X  -0.5189 Y  -0.0000 Z
    Strength   :     0.0480188518
    D(   29) --> V(    1) amplitude = -0.2882
    D(   31) --> V(    1) amplitude =  0.9088

 Excited state   2: excitation energy (eV) =    4.4113
 Total energy for state  2:                  -360.39769724 au
    Multiplicity: Singlet
    Trans. Mom.: -0.0000 X   0.0000 Y  -0.1010 Z
    Strength   :     0.0011033149
    D(   31) --> V(    2) amplitude =  0.9995

 Excited state   3: excitation energy (eV) =    4.6407
 Total energy for state  3:                  -360.38926625 au
    Multiplicity: Singlet
    Trans. Mom.:  0.0015 X  -0.1842 Y   0.0000 Z
    Strength   :     0.0038583391
    D(   30) --> V(    1) amplitude =  0.7063
    D(   31) --> V(    3) amplitude =  0.6635

 ---------------------------------------------------

 Final energy is   -360.416227930817
 **  OPTIMIZATION CONVERGED  **

                    Orbital Energies (a.u.)
 --------------------------------------------------------------

 Alpha MOs
 -- Occupied --
-13.9312  -9.8328  -9.8326  -9.8109  -9.8032  -9.7990  -9.7985  -9.7963
 -9.7884  -0.9018  -0.7642  -0.7007  -0.6690  -0.6415  -0.5697  -0.5352
 -0.5214  -0.4920  -0.4317  -0.4251  -0.3963  -0.3904  -0.3844  -0.3584
 -0.3484  -0.3135  -0.3068  -0.3020  -0.2479  -0.2158  -0.1804

          Ground-State Mulliken Net Atomic Charges

     Atom                 Charge (a.u.)
  ----------------------------------------
      1 C                    -0.053225
      2 C                    -0.389352
      3 C                    -0.223400
      4 C                    -1.371194
      5 C                     1.512546
      6 C                    -0.440916
      7 N                    -0.413287
      8 C                    -0.037167
      9 C                    -0.220816
     10 H                     0.415737
     11 H                     0.202643
     12 H                     0.217419
     13 H                     0.193169
     14 H                     0.204603
     15 H                     0.194067
     16 H                     0.209172
  ----------------------------------------
  Sum of atomic charges =     0.000000

                    Cartesian Multipole Moments
 -----------------------------------------------------------------
    Charge (ESU x 10^10)
                -0.0000
    Dipole Moment (Debye)
         X      -1.3687      Y       1.7824      Z       0.0001
       Tot       2.2473
    Quadrupole Moments (Debye-Ang)
        XX     -45.1392     XY      -3.8122     YY     -44.2014
        XZ      -0.0010     YZ       0.0009     ZZ     -59.4648

 Total job time:  346.74s(wall), 790.87s(cpu)
        *  Thank you very much for using Q-Chem.  Have a nice day.  *
