 Q-Chem 5.3, Q-Chem, Inc., Pleasanton, CA (2020)
 Q-Chem 5.3.1 for Intel X86 EM64T Linux

User input:
--------------------------------------------------------------
$molecule
0 1
C   -2.1510630    0.6892080    0.0000880
C   -2.1279270   -0.7158180    0.0000750
C   -0.9322970   -1.4131000   -0.0000110
C    0.2469110   -0.6702010   -0.0000420
C    0.2481930    0.7482990    0.0000000
C   -0.9794740    1.4235260    0.0000320
N    1.5617740   -1.0775920   -0.0002850
C    1.6201330    1.1629000   -0.0001570
C    2.3820130    0.0308060    0.0002480
H    1.8763150   -2.0300110    0.0004380
H    1.9921730    2.1730100   -0.0003480
H    3.4525490   -0.0824250    0.0004080
H   -3.0615940   -1.2620200    0.0000880
H   -0.9172520   -2.4953420   -0.0000730
H   -3.1042030    1.2007850    0.0000900
H   -1.0093480    2.5054210   -0.0000150
$end

$rem
BASIS  =  6-31+G*
GUI  =  2
JOB_TYPE  =  Optimization
METHOD  = BMK
SCF_CONVERGENCE  =  8
THRESH = 12
CIS_N_ROOTS  = 3
CIS_SINGLETS = true
CIS_TRIPLETS = false
CIS_STATE_DERIV = 3
MEM_STATIC=500
MEM_TOTAL=3000
$end
--------------------------------------------------------------

   15    -363.5812958563      3.28e-09  Convergence criterion met
 Total energy in the final basis set =     -363.5812958563
   12    -363.5767054898      9.58e-09  Convergence criterion met
 Total energy in the final basis set =     -363.5767054898
   12    -363.5728300333      3.53e-09  Convergence criterion met
 Total energy in the final basis set =     -363.5728300333
   10    -363.5726237147      8.91e-09  Convergence criterion met
 Total energy in the final basis set =     -363.5726237147
   10    -363.5725038957      3.65e-09  Convergence criterion met
 Total energy in the final basis set =     -363.5725038957
   10    -363.5724403785      5.89e-09  Convergence criterion met
 Total energy in the final basis set =     -363.5724403785
   10    -363.5726431866      3.70e-09  Convergence criterion met
 Total energy in the final basis set =     -363.5726431866

             Standard Nuclear Orientation (Angstroms)
    I     Atom           X                Y                Z
 ----------------------------------------------------------------
    1      C       2.1787557703    -0.7060287221     0.0000836459
    2      C       2.1320706705     0.7002757692     0.0000969957
    3      C       0.9075889910     1.4184815209    -0.0000555350
    4      C      -0.2528023621     0.6720880328    -0.0001343623
    5      C      -0.2364258940    -0.7599223541    -0.0000377607
    6      C       0.9991290697    -1.4546614122     0.0002069946
    7      N      -1.5899607780     1.0680808683    -0.0001298966
    8      C      -1.5865196191    -1.1773331714    -0.0005623186
    9      C      -2.3784569574     0.0207904529     0.0006784261
   10      H      -1.9516027846     2.0540569835    -0.0000971428
   11      H      -1.9781992932    -2.1896486298    -0.0008025601
   12      H      -3.4608842983     0.1524709060     0.0011035843
   13      H       3.0632856702     1.2626590700     0.0001222578
   14      H       0.8912692606     2.5032114829    -0.0000879598
   15      H       3.1423366561    -1.2097697893     0.0000250012
   16      H       1.0235108497    -2.5421985147     0.0001166114
 ----------------------------------------------------------------

    9    -363.5725641541      3.92e-09  Convergence criterion met
 Total energy in the final basis set =     -363.5725641541

         TDDFT/TDA Excitation Energies
 ---------------------------------------------------

 Excited state   1: excitation energy (eV) =    4.8816
 Total energy for state  1:                  -363.39316739 au
    Multiplicity: Singlet
    Trans. Mom.:  0.9973 X  -0.6945 Y  -0.0004 Z
    Strength   :     0.1766341015
    D(   30) --> V(    3) amplitude =  0.2334
    D(   31) --> V(    1) amplitude =  0.9196

 Excited state   2: excitation energy (eV) =    5.1816
 Total energy for state  2:                  -363.38214410 au
    Multiplicity: Singlet
    Trans. Mom.: -0.1934 X   0.2339 Y  -0.0008 Z
    Strength   :     0.0116936257
    D(   30) --> V(    1) amplitude =  0.7116
    D(   31) --> V(    3) amplitude = -0.6524

 Excited state   3: excitation energy (eV) =    5.1993
 Total energy for state  3:                  -363.38149320 au
    Multiplicity: Singlet
    Trans. Mom.: -0.0001 X  -0.0006 Y  -0.1342 Z
    Strength   :     0.0022949935
    D(   31) --> V(    2) amplitude =  0.9854

 ---------------------------------------------------

 Final energy is   -363.381493203673
 **  OPTIMIZATION CONVERGED  **

                    Orbital Energies (a.u.)
 --------------------------------------------------------------

 Alpha MOs
 -- Occupied --
-14.7339 -10.5252 -10.5176 -10.4882 -10.4811 -10.4801 -10.4795 -10.4767
-10.4706  -1.0765  -0.9124  -0.8451  -0.8091  -0.7718  -0.6867  -0.6517
 -0.6363  -0.5949  -0.5325  -0.5208  -0.4857  -0.4800  -0.4785  -0.4467
 -0.4307  -0.3944  -0.3810  -0.3769  -0.3138  -0.2627  -0.2226

          Ground-State Mulliken Net Atomic Charges

     Atom                 Charge (a.u.)
  ----------------------------------------
      1 C                    -0.048540
      2 C                    -0.440887
      3 C                    -0.076206
      4 C                    -0.987840
      5 C                     1.092419
      6 C                    -0.434716
      7 N                    -0.472879
      8 C                     0.005545
      9 C                    -0.208241
     10 H                     0.419873
     11 H                     0.199234
     12 H                     0.206306
     13 H                     0.180907
     14 H                     0.187151
     15 H                     0.185358
     16 H                     0.192516
  ----------------------------------------
  Sum of atomic charges =     0.000000

                    Cartesian Multipole Moments
 -----------------------------------------------------------------
    Charge (ESU x 10^10)
                -0.0000
    Dipole Moment (Debye)
         X      -1.6586      Y       1.8822      Z       0.0004
       Tot       2.5087
    Quadrupole Moments (Debye-Ang)
        XX     -44.5958     XY      -4.3292     YY     -43.9320
        XZ      -0.0029     YZ       0.0012     ZZ     -59.1763

 Total job time:  1283.03s(wall), 5099.30s(cpu)
        *  Thank you very much for using Q-Chem.  Have a nice day.  *
