 Q-Chem 5.3, Q-Chem, Inc., Pleasanton, CA (2020)
 Q-Chem 5.3.1 for Intel X86 EM64T Linux

User input:
--------------------------------------------------------------
$molecule
0 1
C   -2.1510630    0.6892080    0.0000880
C   -2.1279270   -0.7158180    0.0000750
C   -0.9322970   -1.4131000   -0.0000110
C    0.2469110   -0.6702010   -0.0000420
C    0.2481930    0.7482990    0.0000000
C   -0.9794740    1.4235260    0.0000320
N    1.5617740   -1.0775920   -0.0002850
C    1.6201330    1.1629000   -0.0001570
C    2.3820130    0.0308060    0.0002480
H    1.8763150   -2.0300110    0.0004380
H    1.9921730    2.1730100   -0.0003480
H    3.4525490   -0.0824250    0.0004080
H   -3.0615940   -1.2620200    0.0000880
H   -0.9172520   -2.4953420   -0.0000730
H   -3.1042030    1.2007850    0.0000900
H   -1.0093480    2.5054210   -0.0000150
$end

$rem
BASIS  =  6-31+G*
GUI  =  2
JOB_TYPE  =  Optimization
METHOD  = MPW1PW91
SCF_CONVERGENCE  =  8
THRESH = 12
CIS_N_ROOTS  = 3
CIS_SINGLETS = true
CIS_TRIPLETS = false
CIS_STATE_DERIV = 1
MEM_STATIC = 500
MEM_TOTAL = 3000
$end
--------------------------------------------------------------

   14    -363.7471861283      5.85e-09  Convergence criterion met
 Total energy in the final basis set =     -363.7471861283
   12    -363.7421723725      3.88e-09  Convergence criterion met
 Total energy in the final basis set =     -363.7421723725
   12    -363.7363624406      3.28e-09  Convergence criterion met
 Total energy in the final basis set =     -363.7363624406
   11    -363.7354705373      5.17e-09  Convergence criterion met
 Total energy in the final basis set =     -363.7354705373
   11    -363.7361728685      4.21e-09  Convergence criterion met
 Total energy in the final basis set =     -363.7361728685
   10    -363.7363259780      5.18e-09  Convergence criterion met
 Total energy in the final basis set =     -363.7363259780

             Standard Nuclear Orientation (Angstroms)
    I     Atom           X                Y                Z
 ----------------------------------------------------------------
    1      C       2.1760624356    -0.6851970219    -0.0000829781
    2      C       2.1409185762     0.7017050290    -0.0000131427
    3      C       0.9201852416     1.4502692888     0.0003527216
    4      C      -0.2379645233     0.6458002142     0.0000659316
    5      C      -0.2310130553    -0.7456397241     0.0000988274
    6      C       0.9895494598    -1.4729555865     0.0001825924
    7      N      -1.5926420408     1.0560128246     0.0003571392
    8      C      -1.6053620315    -1.1575043775     0.0002003985
    9      C      -2.4194291679     0.0100791366    -0.0003311503
   10      H      -1.8889426164     2.0216533256     0.0012566336
   11      H      -1.9866084044    -2.1694552005     0.0000007603
   12      H      -3.4937241482     0.1144447522    -0.0006693256
   13      H       3.0789656170     1.2497164685    -0.0001569722
   14      H       0.8996427838     2.5326496679    -0.0005549965
   15      H       3.1407509616    -1.1832723351    -0.0002208500
   16      H       1.0127058635    -2.5557539691     0.0000403920
 ----------------------------------------------------------------

    9    -363.7363610094      3.78e-09  Convergence criterion met
 Total energy in the final basis set =     -363.7363610094

         TDDFT/TDA Excitation Energies
 ---------------------------------------------------

 Excited state   1: excitation energy (eV) =    4.4518
 Total energy for state  1:                  -363.57275888 au
    Multiplicity: Singlet
    Trans. Mom.:  0.7300 X  -0.6909 Y  -0.0001 Z
    Strength   :     0.1101797874
    D(   31) --> V(    1) amplitude =  0.9287

 Excited state   2: excitation energy (eV) =    4.6806
 Total energy for state  2:                  -363.56435107 au
    Multiplicity: Singlet
    Trans. Mom.:  0.0007 X  -0.0004 Y   0.1324 Z
    Strength   :     0.0020109248
    D(   31) --> V(    2) amplitude =  0.9948

 Excited state   3: excitation energy (eV) =    4.9475
 Total energy for state  3:                  -363.55454336 au
    Multiplicity: Singlet
    Trans. Mom.:  0.0587 X   0.2410 Y   0.0001 Z
    Strength   :     0.0074599043
    D(   30) --> V(    1) amplitude =  0.7392
    D(   31) --> V(    4) amplitude = -0.6286

 ---------------------------------------------------

 Final energy is   -363.572758881541
 **  OPTIMIZATION CONVERGED  **

                    Orbital Energies (a.u.)
 --------------------------------------------------------------

 Alpha MOs
 -- Occupied --
-14.4663 -10.2891 -10.2870 -10.2634 -10.2564 -10.2525 -10.2515 -10.2491
-10.2397  -1.0160  -0.8666  -0.8008  -0.7650  -0.7338  -0.6505  -0.6152
 -0.5979  -0.5616  -0.5006  -0.4905  -0.4550  -0.4504  -0.4395  -0.4182
 -0.4063  -0.3670  -0.3576  -0.3506  -0.2854  -0.2447  -0.2071

          Ground-State Mulliken Net Atomic Charges

     Atom                 Charge (a.u.)
  ----------------------------------------
      1 C                    -0.064930
      2 C                    -0.415404
      3 C                    -0.330374
      4 C                    -1.235807
      5 C                     1.725174
      6 C                    -0.621937
      7 N                    -0.420652
      8 C                    -0.173041
      9 C                    -0.173756
     10 H                     0.434380
     11 H                     0.213055
     12 H                     0.221391
     13 H                     0.204631
     14 H                     0.213282
     15 H                     0.205357
     16 H                     0.218631
  ----------------------------------------
  Sum of atomic charges =     0.000000

                    Cartesian Multipole Moments
 -----------------------------------------------------------------
    Charge (ESU x 10^10)
                 0.0000
    Dipole Moment (Debye)
         X      -1.4108      Y       1.7520      Z      -0.0002
       Tot       2.2494
    Quadrupole Moments (Debye-Ang)
        XX     -44.5061     XY      -3.7826     YY     -43.7743
        XZ      -0.0024     YZ       0.0023     ZZ     -59.0062

 Total job time:  305.07s(wall), 1201.50s(cpu)
        *  Thank you very much for using Q-Chem.  Have a nice day.  *
