 Q-Chem 5.3, Q-Chem, Inc., Pleasanton, CA (2020)
 Q-Chem 5.3.1 for Intel X86 EM64T Linux

User input:
--------------------------------------------------------------
$molecule
0 1
C   -2.1510630    0.6892080    0.0000880
C   -2.1279270   -0.7158180    0.0000750
C   -0.9322970   -1.4131000   -0.0000110
C    0.2469110   -0.6702010   -0.0000420
C    0.2481930    0.7482990    0.0000000
C   -0.9794740    1.4235260    0.0000320
N    1.5617740   -1.0775920   -0.0002850
C    1.6201330    1.1629000   -0.0001570
C    2.3820130    0.0308060    0.0002480
H    1.8763150   -2.0300110    0.0004380
H    1.9921730    2.1730100   -0.0003480
H    3.4525490   -0.0824250    0.0004080
H   -3.0615940   -1.2620200    0.0000880
H   -0.9172520   -2.4953420   -0.0000730
H   -3.1042030    1.2007850    0.0000900
H   -1.0093480    2.5054210   -0.0000150
$end

$rem
BASIS  =  6-31+G*
GUI  =  2
JOB_TYPE  =  Optimization
METHOD  = HSE-HJS
SCF_CONVERGENCE  =  8
THRESH = 12
CIS_N_ROOTS  = 3
CIS_SINGLETS = true
CIS_TRIPLETS = false
CIS_STATE_DERIV = 1
MEM_STATIC = 500
MEM_TOTAL = 3000
$end
--------------------------------------------------------------

   14    -363.3966377697      7.30e-09  Convergence criterion met
 Total energy in the final basis set =     -363.3966377697
   12    -363.3911721992      3.26e-09  Convergence criterion met
 Total energy in the final basis set =     -363.3911721992
   12    -363.3856736289      4.34e-09  Convergence criterion met
 Total energy in the final basis set =     -363.3856736289
   11    -363.3851233776      3.66e-09  Convergence criterion met
 Total energy in the final basis set =     -363.3851233776
   11    -363.3855020714      3.66e-09  Convergence criterion met
 Total energy in the final basis set =     -363.3855020714

             Standard Nuclear Orientation (Angstroms)
    I     Atom           X                Y                Z
 ----------------------------------------------------------------
    1      C       2.1764104900    -0.6852085844    -0.0000324718
    2      C       2.1410308444     0.7023874523     0.0000284580
    3      C       0.9212570388     1.4518278431     0.0001078010
    4      C      -0.2377224179     0.6448765673     0.0000714104
    5      C      -0.2298959208    -0.7454397508     0.0000124535
    6      C       0.9899649570    -1.4741505154    -0.0000266419
    7      N      -1.5932960931     1.0551721790     0.0001003112
    8      C      -1.6068349641    -1.1580743572    -0.0000087415
    9      C      -2.4208995918     0.0104453425     0.0000962992
   10      H      -1.8888749632     2.0222257915     0.0002502453
   11      H      -1.9883548497    -2.1714127396    -0.0000741874
   12      H      -3.4965172931     0.1155134101     0.0001420779
   13      H       3.0804032754     1.2509210423     0.0000155489
   14      H       0.9006198192     2.5353934041    -0.0000006168
   15      H       3.1424114318    -1.1837666217    -0.0000832251
   16      H       1.0133931883    -2.5581579704    -0.0000727398
 ----------------------------------------------------------------

    9    -363.3856405205      8.50e-09  Convergence criterion met
 Total energy in the final basis set =     -363.3856405205

         TDDFT/TDA Excitation Energies
 ---------------------------------------------------

 Excited state   1: excitation energy (eV) =    4.4130
 Total energy for state  1:                  -363.22346535 au
    Multiplicity: Singlet
    Trans. Mom.: -0.7060 X   0.6769 Y   0.0001 Z
    Strength   :     0.1034202692
    D(   29) --> V(    1) amplitude =  0.2141
    D(   31) --> V(    1) amplitude =  0.9274

 Excited state   2: excitation energy (eV) =    4.7346
 Total energy for state  2:                  -363.21164612 au
    Multiplicity: Singlet
    Trans. Mom.: -0.0001 X   0.0001 Y  -0.1382 Z
    Strength   :     0.0022160281
    D(   31) --> V(    2) amplitude =  0.9962

 Excited state   3: excitation energy (eV) =    4.9365
 Total energy for state  3:                  -363.20422812 au
    Multiplicity: Singlet
    Trans. Mom.:  0.0500 X   0.2351 Y   0.0000 Z
    Strength   :     0.0069845815
    D(   30) --> V(    1) amplitude =  0.7360
    D(   31) --> V(    3) amplitude = -0.6345

 ---------------------------------------------------

 Final energy is   -363.223465346368
 **  OPTIMIZATION CONVERGED  **

                    Orbital Energies (a.u.)
 --------------------------------------------------------------

 Alpha MOs
 -- Occupied --
-14.4381 -10.2611 -10.2593 -10.2359 -10.2288 -10.2247 -10.2238 -10.2214
-10.2122  -0.9999  -0.8503  -0.7840  -0.7485  -0.7174  -0.6341  -0.5984
 -0.5814  -0.5451  -0.4839  -0.4740  -0.4387  -0.4341  -0.4235  -0.4017
 -0.3899  -0.3510  -0.3411  -0.3348  -0.2698  -0.2299  -0.1924

          Ground-State Mulliken Net Atomic Charges

     Atom                 Charge (a.u.)
  ----------------------------------------
      1 C                    -0.059388
      2 C                    -0.412514
      3 C                    -0.351783
      4 C                    -1.233323
      5 C                     1.736450
      6 C                    -0.612806
      7 N                    -0.431039
      8 C                    -0.171873
      9 C                    -0.173891
     10 H                     0.434767
     11 H                     0.212765
     12 H                     0.221532
     13 H                     0.204120
     14 H                     0.213634
     15 H                     0.204890
     16 H                     0.218460
  ----------------------------------------
  Sum of atomic charges =     0.000000

                    Cartesian Multipole Moments
 -----------------------------------------------------------------
    Charge (ESU x 10^10)
                 0.0000
    Dipole Moment (Debye)
         X      -1.4123      Y       1.7605      Z       0.0001
       Tot       2.2570
    Quadrupole Moments (Debye-Ang)
        XX     -44.6347     XY      -3.8007     YY     -43.8841
        XZ      -0.0011     YZ       0.0009     ZZ     -59.1699

 Total job time:  387.63s(wall), 1535.29s(cpu)
        *  Thank you very much for using Q-Chem.  Have a nice day.  *
