 Q-Chem 5.3, Q-Chem, Inc., Pleasanton, CA (2020)
 Q-Chem 5.3.1 for Intel X86 EM64T Linux

User input:
--------------------------------------------------------------
$molecule
0 1
C   -2.1510630    0.6892080    0.0000880
C   -2.1279270   -0.7158180    0.0000750
C   -0.9322970   -1.4131000   -0.0000110
C    0.2469110   -0.6702010   -0.0000420
C    0.2481930    0.7482990    0.0000000
C   -0.9794740    1.4235260    0.0000320
N    1.5617740   -1.0775920   -0.0002850
C    1.6201330    1.1629000   -0.0001570
C    2.3820130    0.0308060    0.0002480
H    1.8763150   -2.0300110    0.0004380
H    1.9921730    2.1730100   -0.0003480
H    3.4525490   -0.0824250    0.0004080
H   -3.0615940   -1.2620200    0.0000880
H   -0.9172520   -2.4953420   -0.0000730
H   -3.1042030    1.2007850    0.0000900
H   -1.0093480    2.5054210   -0.0000150
$end

$rem
BASIS  =  6-31+G*
GUI  =  2
JOB_TYPE  =  Optimization
METHOD  = WB97X
SCF_CONVERGENCE  =  8
THRESH = 12
CIS_N_ROOTS  = 3
CIS_SINGLETS = true
CIS_TRIPLETS = false
CIS_STATE_DERIV = 1
MEM_STATIC=500
MEM_TOTAL=3000
$end
--------------------------------------------------------------

   15    -363.7245891483      7.93e-09  Convergence criterion met
 Total energy in the final basis set =     -363.7245891483
   13    -363.7202997985      5.22e-09  Convergence criterion met
 Total energy in the final basis set =     -363.7202997985
   11    -363.7200120534      9.98e-09  Convergence criterion met
 Total energy in the final basis set =     -363.7200120534
   11    -363.7197992273      5.10e-09  Convergence criterion met
 Total energy in the final basis set =     -363.7197992273

             Standard Nuclear Orientation (Angstroms)
    I     Atom           X                Y                Z
 ----------------------------------------------------------------
    1      C       2.1617414383    -0.6863051438    -0.0000137535
    2      C       2.1525704812     0.7362411457     0.0000207721
    3      C       0.9341368782     1.4554950974     0.0000332905
    4      C      -0.2495940404     0.6831990882     0.0000184156
    5      C      -0.2602286587    -0.7751744303    -0.0000242945
    6      C       0.9698007473    -1.4616750637    -0.0000444756
    7      N      -1.5498700922     1.0740092153     0.0000058879
    8      C      -1.6371088776    -1.1738124969    -0.0000070507
    9      C      -2.4073237133    -0.0410029716     0.0001348501
   10      H      -1.8613660331     2.0332845854     0.0003707438
   11      H      -2.0105819052    -2.1900174933    -0.0000707412
   12      H      -3.4798980774     0.0918786723     0.0001418285
   13      H       3.0969631774     1.2714155193     0.0000265554
   14      H       0.9100072073     2.5410629795     0.0000205063
   15      H       3.1197125919    -1.1997677037    -0.0000246730
   16      H       1.0141338275    -2.5462785071    -0.0000618808
 ----------------------------------------------------------------

    9    -363.7197936107      4.96e-09  Convergence criterion met
 Total energy in the final basis set =     -363.7197936107

         TDDFT/TDA Excitation Energies
 ---------------------------------------------------

 Excited state   1: excitation energy (eV) =    4.9986
 Total energy for state  1:                  -363.53609700 au
    Multiplicity: Singlet
    Trans. Mom.:  0.5113 X   0.4444 Y  -0.0000 Z
    Strength   :     0.0562023991
    D(   30) --> V(    1) amplitude =  0.7868
    D(   31) --> V(    1) amplitude = -0.2650
    D(   31) --> V(    5) amplitude = -0.4789

 Excited state   2: excitation energy (eV) =    5.3213
 Total energy for state  2:                  -363.52423973 au
    Multiplicity: Singlet
    Trans. Mom.:  0.6964 X  -0.6718 Y  -0.0001 Z
    Strength   :     0.1220581586
    D(   30) --> V(    1) amplitude =  0.2233
    D(   30) --> V(    5) amplitude =  0.3694
    D(   31) --> V(    1) amplitude =  0.8545

 Excited state   3: excitation energy (eV) =    6.0441
 Total energy for state  3:                  -363.49767630 au
    Multiplicity: Singlet
    Trans. Mom.: -0.0000 X   0.0000 Y  -0.1686 Z
    Strength   :     0.0042085010
    D(   31) --> V(    2) amplitude =  0.9096

 ---------------------------------------------------

 Final energy is   -363.536096997581
 **  OPTIMIZATION CONVERGED  **

                    Orbital Energies (a.u.)
 --------------------------------------------------------------

 Alpha MOs
 -- Occupied --
-14.4633 -10.3129 -10.3118 -10.2819 -10.2786 -10.2784 -10.2766 -10.2711
-10.2666  -1.1138  -0.9635  -0.9156  -0.8582  -0.8465  -0.7475  -0.7150
 -0.7001  -0.6535  -0.6014  -0.5814  -0.5429  -0.5391  -0.5382  -0.5177
 -0.4996  -0.4565  -0.4393  -0.4387  -0.3838  -0.3054  -0.2947

          Ground-State Mulliken Net Atomic Charges

     Atom                 Charge (a.u.)
  ----------------------------------------
      1 C                    -0.074124
      2 C                    -0.395129
      3 C                    -0.140376
      4 C                    -0.633445
      5 C                     0.805066
      6 C                    -0.529721
      7 N                    -0.560516
      8 C                     0.098117
      9 C                    -0.239184
     10 H                     0.429437
     11 H                     0.216019
     12 H                     0.218965
     13 H                     0.199402
     14 H                     0.204119
     15 H                     0.193427
     16 H                     0.207942
  ----------------------------------------
  Sum of atomic charges =     0.000000

                    Cartesian Multipole Moments
 -----------------------------------------------------------------
    Charge (ESU x 10^10)
                -0.0000
    Dipole Moment (Debye)
         X      -1.6018      Y       1.5155      Z       0.0005
       Tot       2.2051
    Quadrupole Moments (Debye-Ang)
        XX     -44.8476     XY      -2.9761     YY     -43.9305
        XZ      -0.0014     YZ       0.0018     ZZ     -59.1920

 Total job time:  551.29s(wall), 2189.49s(cpu)
        *  Thank you very much for using Q-Chem.  Have a nice day.  *
