 Q-Chem 5.3, Q-Chem, Inc., Pleasanton, CA (2020)
 Q-Chem 5.3.1 for Intel X86 EM64T Linux

User input:
--------------------------------------------------------------
$molecule
0 1
C   -2.1510630    0.6892080    0.0000880
C   -2.1279270   -0.7158180    0.0000750
C   -0.9322970   -1.4131000   -0.0000110
C    0.2469110   -0.6702010   -0.0000420
C    0.2481930    0.7482990    0.0000000
C   -0.9794740    1.4235260    0.0000320
N    1.5617740   -1.0775920   -0.0002850
C    1.6201330    1.1629000   -0.0001570
C    2.3820130    0.0308060    0.0002480
H    1.8763150   -2.0300110    0.0004380
H    1.9921730    2.1730100   -0.0003480
H    3.4525490   -0.0824250    0.0004080
H   -3.0615940   -1.2620200    0.0000880
H   -0.9172520   -2.4953420   -0.0000730
H   -3.1042030    1.2007850    0.0000900
H   -1.0093480    2.5054210   -0.0000150
$end

$rem
BASIS  =  6-31+G*
GUI  =  2
JOB_TYPE  =  Optimization
METHOD  = WB97X
SCF_CONVERGENCE  =  8
THRESH = 12
CIS_N_ROOTS  = 3
CIS_SINGLETS = true
CIS_TRIPLETS = false
CIS_STATE_DERIV = 3
MEM_STATIC=500
MEM_TOTAL=3000
$end
--------------------------------------------------------------

   15    -363.7245891483      7.93e-09  Convergence criterion met
 Total energy in the final basis set =     -363.7245891483
   13    -363.7194547237      7.78e-09  Convergence criterion met
 Total energy in the final basis set =     -363.7194547237
   12    -363.7155975549      6.33e-09  Convergence criterion met
 Total energy in the final basis set =     -363.7155975549
   10    -363.7156327331      9.92e-09  Convergence criterion met
 Total energy in the final basis set =     -363.7156327331
   10    -363.7155303490      7.55e-09  Convergence criterion met
 Total energy in the final basis set =     -363.7155303490
    9    -363.7155608354      8.72e-09  Convergence criterion met
 Total energy in the final basis set =     -363.7155608354

             Standard Nuclear Orientation (Angstroms)
    I     Atom           X                Y                Z
 ----------------------------------------------------------------
    1      C       2.1658217118    -0.7019725479     0.0000274180
    2      C       2.1216969673     0.6989652781     0.0000580600
    3      C       0.9104003943     1.4126869797     0.0001101449
    4      C      -0.2433252926     0.6637724484     0.0000294650
    5      C      -0.2326928447    -0.7538168443    -0.0000622897
    6      C       0.9945667014    -1.4452208351     0.0000623084
    7      N      -1.5868631412     1.0664391468    -0.0000986402
    8      C      -1.5830765215    -1.1665101998    -0.0002929346
    9      C      -2.3751440257     0.0155465636     0.0004064465
   10      H      -1.9320495584     2.0561151548    -0.0001198368
   11      H      -1.9741188726    -2.1782088874    -0.0003557936
   12      H      -3.4547963487     0.1284769878     0.0007114065
   13      H       3.0540097787     1.2566126308     0.0000405938
   14      H       0.8916577992     2.4962035459     0.0000840755
   15      H       3.1277187487    -1.2056060229    -0.0000329309
   16      H       1.0192894554    -2.5309309059    -0.0000415115
 ----------------------------------------------------------------

    9    -363.7155751729      5.00e-09  Convergence criterion met
 Total energy in the final basis set =     -363.7155751729

         TDDFT/TDA Excitation Energies
 ---------------------------------------------------

 Excited state   1: excitation energy (eV) =    5.0830
 Total energy for state  1:                  -363.52877818 au
    Multiplicity: Singlet
    Trans. Mom.:  1.0604 X  -0.6678 Y  -0.0003 Z
    Strength   :     0.1955627461
    D(   30) --> V(    5) amplitude = -0.2583
    D(   31) --> V(    1) amplitude =  0.8906
    D(   31) --> V(    5) amplitude = -0.2374

 Excited state   2: excitation energy (eV) =    5.2818
 Total energy for state  2:                  -363.52147331 au
    Multiplicity: Singlet
    Trans. Mom.: -0.3177 X   0.3478 Y   0.0001 Z
    Strength   :     0.0287103557
    D(   30) --> V(    1) amplitude = -0.6857
    D(   31) --> V(    1) amplitude = -0.2884
    D(   31) --> V(    5) amplitude = -0.6036

 Excited state   3: excitation energy (eV) =    5.5600
 Total energy for state  3:                  -363.51124899 au
    Multiplicity: Singlet
    Trans. Mom.: -0.0005 X   0.0004 Y  -0.2001 Z
    Strength   :     0.0054541231
    D(   31) --> V(    2) amplitude =  0.9391

 ---------------------------------------------------

 Final energy is   -363.511248987119
 **  OPTIMIZATION CONVERGED  **

                    Orbital Energies (a.u.)
 --------------------------------------------------------------

 Alpha MOs
 -- Occupied --
-14.4709 -10.3110 -10.3047 -10.2784 -10.2713 -10.2709 -10.2707 -10.2676
-10.2590  -1.1258  -0.9773  -0.9089  -0.8733  -0.8377  -0.7499  -0.7151
 -0.7015  -0.6589  -0.5944  -0.5854  -0.5507  -0.5460  -0.5425  -0.5093
 -0.4941  -0.4570  -0.4504  -0.4390  -0.3779  -0.3213  -0.2801

          Ground-State Mulliken Net Atomic Charges

     Atom                 Charge (a.u.)
  ----------------------------------------
      1 C                    -0.060253
      2 C                    -0.429771
      3 C                    -0.109542
      4 C                    -0.712038
      5 C                     0.875516
      6 C                    -0.482866
      7 N                    -0.510386
      8 C                     0.013065
      9 C                    -0.243286
     10 H                     0.430801
     11 H                     0.210311
     12 H                     0.215845
     13 H                     0.194070
     14 H                     0.203911
     15 H                     0.198101
     16 H                     0.206522
  ----------------------------------------
  Sum of atomic charges =     0.000000

                    Cartesian Multipole Moments
 -----------------------------------------------------------------
    Charge (ESU x 10^10)
                -0.0000
    Dipole Moment (Debye)
         X      -1.5571      Y       1.8883      Z       0.0002
       Tot       2.4475
    Quadrupole Moments (Debye-Ang)
        XX     -44.8029     XY      -4.2493     YY     -44.0677
        XZ      -0.0022     YZ       0.0005     ZZ     -58.9196

 Total job time:  801.09s(wall), 3180.56s(cpu)
        *  Thank you very much for using Q-Chem.  Have a nice day.  *
