 Q-Chem 5.3, Q-Chem, Inc., Pleasanton, CA (2020)
 Q-Chem 5.3.1 for Intel X86 EM64T Linux

User input:
--------------------------------------------------------------
$molecule
0 1
C   -2.1510630    0.6892080    0.0000880
C   -2.1279270   -0.7158180    0.0000750
C   -0.9322970   -1.4131000   -0.0000110
C    0.2469110   -0.6702010   -0.0000420
C    0.2481930    0.7482990    0.0000000
C   -0.9794740    1.4235260    0.0000320
N    1.5617740   -1.0775920   -0.0002850
C    1.6201330    1.1629000   -0.0001570
C    2.3820130    0.0308060    0.0002480
H    1.8763150   -2.0300110    0.0004380
H    1.9921730    2.1730100   -0.0003480
H    3.4525490   -0.0824250    0.0004080
H   -3.0615940   -1.2620200    0.0000880
H   -0.9172520   -2.4953420   -0.0000730
H   -3.1042030    1.2007850    0.0000900
H   -1.0093480    2.5054210   -0.0000150
$end

$rem
BASIS  =  6-31+G*
GUI  =  2
JOB_TYPE  =  Optimization
METHOD  = B3PW91
SCF_CONVERGENCE  =  8
THRESH = 12
CIS_N_ROOTS  = 3
CIS_SINGLETS = true
CIS_TRIPLETS = false
CIS_STATE_DERIV = 1
MEM_STATIC=500
MEM_TOTAL=3000
$end
--------------------------------------------------------------

   14    -363.6926058185      6.69e-09  Convergence criterion met
 Total energy in the final basis set =     -363.6926058185
   12    -363.6874065356      4.10e-09  Convergence criterion met
 Total energy in the final basis set =     -363.6874065356
   12    -363.6818874087      4.26e-09  Convergence criterion met
 Total energy in the final basis set =     -363.6818874087
   11    -363.6806201621      5.15e-09  Convergence criterion met
 Total energy in the final basis set =     -363.6806201621
   11    -363.6811816794      3.56e-09  Convergence criterion met
 Total energy in the final basis set =     -363.6811816794
   10    -363.6813765462      5.98e-09  Convergence criterion met
 Total energy in the final basis set =     -363.6813765462

             Standard Nuclear Orientation (Angstroms)
    I     Atom           X                Y                Z
 ----------------------------------------------------------------
    1      C       2.1798769446    -0.6855854244    -0.0000393269
    2      C       2.1446942054     0.7034466943     0.0000224035
    3      C       0.9248352511     1.4543829459     0.0000843896
    4      C      -0.2363699104     0.6444428903     0.0000711904
    5      C      -0.2288119566    -0.7453706445     0.0000096809
    6      C       0.9915269143    -1.4763261255    -0.0000484892
    7      N      -1.5974945824     1.0564284733     0.0001091036
    8      C      -1.6105819620    -1.1588181664     0.0000049990
    9      C      -2.4257281539     0.0096489626     0.0001012818
   10      H      -1.8940024197     2.0238808877     0.0001864054
   11      H      -1.9919504595    -2.1724235485    -0.0000421137
   12      H      -3.5015605877     0.1141590670     0.0001457388
   13      H       3.0849054305     1.2512544227     0.0000237922
   14      H       0.9033216661     2.5380580823     0.0000636609
   15      H       3.1462367618    -1.1841563598    -0.0000821519
   16      H       1.0141978097    -2.5604696643    -0.0000845832
 ----------------------------------------------------------------

    8    -363.6814024249      7.62e-09  Convergence criterion met
 Total energy in the final basis set =     -363.6814024249

         TDDFT/TDA Excitation Energies
 ---------------------------------------------------

 Excited state   1: excitation energy (eV) =    4.3497
 Total energy for state  1:                  -363.52155281 au
    Multiplicity: Singlet
    Trans. Mom.: -0.6670 X   0.6606 Y   0.0001 Z
    Strength   :     0.0939156299
    D(   29) --> V(    1) amplitude =  0.2267
    D(   31) --> V(    1) amplitude =  0.9238

 Excited state   2: excitation energy (eV) =    4.8448
 Total energy for state  2:                  -363.50336009 au
    Multiplicity: Singlet
    Trans. Mom.: -0.0000 X   0.0000 Y  -0.1288 Z
    Strength   :     0.0019704858
    D(   31) --> V(    2) amplitude =  0.9955

 Excited state   3: excitation energy (eV) =    4.8800
 Total energy for state  3:                  -363.50206606 au
    Multiplicity: Singlet
    Trans. Mom.:  0.0470 X   0.2340 Y   0.0000 Z
    Strength   :     0.0068127063
    D(   30) --> V(    1) amplitude =  0.7333
    D(   31) --> V(    3) amplitude = -0.6365

 ---------------------------------------------------

 Final energy is   -363.521552809825
 **  OPTIMIZATION CONVERGED  **

                    Orbital Energies (a.u.)
 --------------------------------------------------------------

 Alpha MOs
 -- Occupied --
-14.3796 -10.2164 -10.2150 -10.1917 -10.1845 -10.1805 -10.1796 -10.1773
-10.1679  -0.9913  -0.8453  -0.7800  -0.7455  -0.7153  -0.6340  -0.5990
 -0.5822  -0.5474  -0.4870  -0.4777  -0.4423  -0.4382  -0.4260  -0.4063
 -0.3946  -0.3570  -0.3465  -0.3403  -0.2762  -0.2379  -0.2008

          Ground-State Mulliken Net Atomic Charges

     Atom                 Charge (a.u.)
  ----------------------------------------
      1 C                    -0.061769
      2 C                    -0.398076
      3 C                    -0.327223
      4 C                    -1.209888
      5 C                     1.707515
      6 C                    -0.602532
      7 N                    -0.412819
      8 C                    -0.170207
      9 C                    -0.168694
     10 H                     0.423740
     11 H                     0.203051
     12 H                     0.213224
     13 H                     0.195154
     14 H                     0.203627
     15 H                     0.195797
     16 H                     0.209098
  ----------------------------------------
  Sum of atomic charges =     0.000000

                    Cartesian Multipole Moments
 -----------------------------------------------------------------
    Charge (ESU x 10^10)
                -0.0000
    Dipole Moment (Debye)
         X      -1.3892      Y       1.7478      Z       0.0001
       Tot       2.2326
    Quadrupole Moments (Debye-Ang)
        XX     -44.5391     XY      -3.7783     YY     -43.7917
        XZ      -0.0007     YZ       0.0007     ZZ     -58.8746

 Total job time:  307.84s(wall), 1222.96s(cpu)
        *  Thank you very much for using Q-Chem.  Have a nice day.  *
