 Q-Chem 5.3, Q-Chem, Inc., Pleasanton, CA (2020)
 Q-Chem 5.3.1 for Intel X86 EM64T Linux

User input:
--------------------------------------------------------------
$molecule
0 1
C   -2.1510630    0.6892080    0.0000880
C   -2.1279270   -0.7158180    0.0000750
C   -0.9322970   -1.4131000   -0.0000110
C    0.2469110   -0.6702010   -0.0000420
C    0.2481930    0.7482990    0.0000000
C   -0.9794740    1.4235260    0.0000320
N    1.5617740   -1.0775920   -0.0002850
C    1.6201330    1.1629000   -0.0001570
C    2.3820130    0.0308060    0.0002480
H    1.8763150   -2.0300110    0.0004380
H    1.9921730    2.1730100   -0.0003480
H    3.4525490   -0.0824250    0.0004080
H   -3.0615940   -1.2620200    0.0000880
H   -0.9172520   -2.4953420   -0.0000730
H   -3.1042030    1.2007850    0.0000900
H   -1.0093480    2.5054210   -0.0000150
$end

$rem
BASIS  =  6-31+G*
GUI  =  2
JOB_TYPE  =  Optimization
METHOD  = M06-2X
SCF_CONVERGENCE  =  8
THRESH = 12
CIS_N_ROOTS  = 3
CIS_SINGLETS = true
CIS_TRIPLETS = false
CIS_STATE_DERIV = 1
MEM_STATIC = 500
MEM_TOTAL = 3000
$end
--------------------------------------------------------------

   15    -363.6704995708      3.19e-09  Convergence criterion met
 Total energy in the final basis set =     -363.6704995708
   13    -363.6647759444      2.79e-09  Convergence criterion met
 Total energy in the final basis set =     -363.6647759444
   12    -363.6607694218      6.02e-09  Convergence criterion met
 Total energy in the final basis set =     -363.6607694218
   10    -363.6608875016      9.10e-09  Convergence criterion met
 Total energy in the final basis set =     -363.6608875016
   10    -363.6608517689      3.74e-09  Convergence criterion met
 Total energy in the final basis set =     -363.6608517689

             Standard Nuclear Orientation (Angstroms)
    I     Atom           X                Y                Z
 ----------------------------------------------------------------
    1      C       2.1673138343    -0.7032158888    -0.0000723101
    2      C       2.1225087876     0.6970436549    -0.0000111300
    3      C       0.9069260796     1.4141688458     0.0000806008
    4      C      -0.2478921846     0.6682051465     0.0000822140
    5      C      -0.2356074547    -0.7556028294     0.0000277487
    6      C       0.9946926336    -1.4473047583    -0.0000746537
    7      N      -1.5868139340     1.0680238096     0.0002035250
    8      C      -1.5786546291    -1.1715183895     0.0001343487
    9      C      -2.3730738324     0.0189590479    -0.0000697490
   10      H      -1.9393707554     2.0512887609     0.0003355812
   11      H      -1.9663990366    -2.1819505916     0.0001316646
   12      H      -3.4510221835     0.1413764099    -0.0001268970
   13      H       3.0530686689     1.2553477674    -0.0000192940
   14      H       0.8907026949     2.4961472536     0.0001255121
   15      H       3.1283424835    -1.2058135006    -0.0001184631
   16      H       1.0183737789    -2.5326022456    -0.0001027171
 ----------------------------------------------------------------

    9    -363.6609006236      6.80e-09  Convergence criterion met
 Total energy in the final basis set =     -363.6609006236

         TDDFT/TDA Excitation Energies
 ---------------------------------------------------

 Excited state   1: excitation energy (eV) =    4.6738
 Total energy for state  1:                  -363.48914050 au
    Multiplicity: Singlet
    Trans. Mom.:  0.0002 X  -0.0001 Y   0.1277 Z
    Strength   :     0.0018672322
    D(   31) --> V(    1) amplitude =  0.9835

 Excited state   2: excitation energy (eV) =    4.9070
 Total energy for state  2:                  -363.48057085 au
    Multiplicity: Singlet
    Trans. Mom.:  1.0453 X  -0.6718 Y  -0.0000 Z
    Strength   :     0.1856199119
    D(   30) --> V(    7) amplitude = -0.2140
    D(   31) --> V(    2) amplitude =  0.9209

 Excited state   3: excitation energy (eV) =    5.1982
 Total energy for state  3:                  -363.46987206 au
    Multiplicity: Singlet
    Trans. Mom.: -0.2673 X   0.2443 Y   0.0000 Z
    Strength   :     0.0166994371
    D(   30) --> V(    2) amplitude = -0.6973
    D(   31) --> V(    7) amplitude = -0.6401

 ---------------------------------------------------

 Final energy is   -363.489140504809
 **  OPTIMIZATION CONVERGED  **

                    Orbital Energies (a.u.)
 --------------------------------------------------------------

 Alpha MOs
 -- Occupied --
-14.8203 -10.5890 -10.5829 -10.5548 -10.5477 -10.5470 -10.5469 -10.5434
-10.5368  -1.1074  -0.9461  -0.8762  -0.8398  -0.8012  -0.7126  -0.6785
 -0.6618  -0.6192  -0.5549  -0.5438  -0.5087  -0.5053  -0.5009  -0.4679
 -0.4517  -0.4143  -0.4058  -0.3970  -0.3359  -0.2834  -0.2414

          Ground-State Mulliken Net Atomic Charges

     Atom                 Charge (a.u.)
  ----------------------------------------
      1 C                    -0.049197
      2 C                    -0.457251
      3 C                    -0.077970
      4 C                    -0.914282
      5 C                     1.031408
      6 C                    -0.525028
      7 N                    -0.480287
      8 C                     0.068576
      9 C                    -0.273008
     10 H                     0.440370
     11 H                     0.212580
     12 H                     0.216820
     13 H                     0.195803
     14 H                     0.203675
     15 H                     0.200099
     16 H                     0.207693
  ----------------------------------------
  Sum of atomic charges =     0.000000

                    Cartesian Multipole Moments
 -----------------------------------------------------------------
    Charge (ESU x 10^10)
                -0.0000
    Dipole Moment (Debye)
         X      -1.6285      Y       1.8918      Z       0.0001
       Tot       2.4962
    Quadrupole Moments (Debye-Ang)
        XX     -45.0024     XY      -4.3086     YY     -44.2389
        XZ      -0.0003     YZ       0.0010     ZZ     -59.2335

 Total job time:  5766.77s(wall), 9107.54s(cpu)
        *  Thank you very much for using Q-Chem.  Have a nice day.  *
