 Q-Chem 5.3, Q-Chem, Inc., Pleasanton, CA (2020)
 Q-Chem 5.3.1 for Intel X86 EM64T Linux

User input:
--------------------------------------------------------------
$molecule
0 1
C   -2.1510630    0.6892080    0.0000880
C   -2.1279270   -0.7158180    0.0000750
C   -0.9322970   -1.4131000   -0.0000110
C    0.2469110   -0.6702010   -0.0000420
C    0.2481930    0.7482990    0.0000000
C   -0.9794740    1.4235260    0.0000320
N    1.5617740   -1.0775920   -0.0002850
C    1.6201330    1.1629000   -0.0001570
C    2.3820130    0.0308060    0.0002480
H    1.8763150   -2.0300110    0.0004380
H    1.9921730    2.1730100   -0.0003480
H    3.4525490   -0.0824250    0.0004080
H   -3.0615940   -1.2620200    0.0000880
H   -0.9172520   -2.4953420   -0.0000730
H   -3.1042030    1.2007850    0.0000900
H   -1.0093480    2.5054210   -0.0000150
$end

$rem
BASIS  =  6-31+G*
GUI  =  2
JOB_TYPE  =  Optimization
METHOD  = MN15
SCF_CONVERGENCE  =  8
THRESH = 12
CIS_N_ROOTS  = 3
CIS_SINGLETS = true
CIS_TRIPLETS = false
CIS_STATE_DERIV = 1
MEM_STATIC = 500
MEM_TOTAL = 3000
$end
--------------------------------------------------------------

   15    -363.3910283697      3.52e-09  Convergence criterion met
 Total energy in the final basis set =     -363.3910283697
   12    -363.3874360949      6.20e-09  Convergence criterion met
 Total energy in the final basis set =     -363.3874360949
   11    -363.3871231556      4.71e-09  Convergence criterion met
 Total energy in the final basis set =     -363.3871231556
   10    -363.3868875084      9.97e-09  Convergence criterion met
 Total energy in the final basis set =     -363.3868875084

             Standard Nuclear Orientation (Angstroms)
    I     Atom           X                Y                Z
 ----------------------------------------------------------------
    1      C       2.1670000229    -0.6857675088    -0.0000278471
    2      C       2.1618917785     0.7386712488     0.0000147484
    3      C       0.9359032298     1.4531009836     0.0000379097
    4      C      -0.2468656031     0.6821830180     0.0000307886
    5      C      -0.2628926689    -0.7753906342    -0.0000190393
    6      C       0.9695562048    -1.4606023749    -0.0000419228
    7      N      -1.5541909558     1.0747985614     0.0000447150
    8      C      -1.6389668823    -1.1760602417     0.0000169170
    9      C      -2.4180008035    -0.0400141394     0.0001040234
   10      H      -1.8633299153     2.0391654312     0.0003894187
   11      H      -2.0081732943    -2.1940339597    -0.0000337913
   12      H      -3.4900173245     0.0918044007     0.0000651370
   13      H       3.1057445564     1.2749594955     0.0000173345
   14      H       0.9081868076     2.5391258784     0.0000323675
   15      H       3.1228806351    -1.2039383344    -0.0000530158
   16      H       1.0143691638    -2.5454493319    -0.0000517624
 ----------------------------------------------------------------

    9    -363.3868702624      6.60e-09  Convergence criterion met
 Total energy in the final basis set =     -363.3868702624

         TDDFT/TDA Excitation Energies
 ---------------------------------------------------

 Excited state   1: excitation energy (eV) =    4.8422
 Total energy for state  1:                  -363.20892247 au
    Multiplicity: Singlet
    Trans. Mom.: -0.3513 X  -0.4899 Y   0.0000 Z
    Strength   :     0.0431123620
    D(   30) --> V(    1) amplitude =  0.7571
    D(   31) --> V(    1) amplitude = -0.3529
    D(   31) --> V(    2) amplitude =  0.4927

 Excited state   2: excitation energy (eV) =    5.0653
 Total energy for state  2:                  -363.20072305 au
    Multiplicity: Singlet
    Trans. Mom.: -0.7480 X   0.6021 Y   0.0001 Z
    Strength   :     0.1144183097
    D(   30) --> V(    1) amplitude =  0.2812
    D(   30) --> V(    2) amplitude = -0.2971
    D(   31) --> V(    1) amplitude =  0.8374
    D(   31) --> V(    2) amplitude =  0.2800

 Excited state   3: excitation energy (eV) =    5.9301
 Total energy for state  3:                  -363.16894181 au
    Multiplicity: Singlet
    Trans. Mom.: -0.0001 X  -0.0001 Y  -0.1649 Z
    Strength   :     0.0039487716
    D(   31) --> V(    3) amplitude =  0.9661

 ---------------------------------------------------

 Final energy is   -363.208922471504
 **  OPTIMIZATION CONVERGED  **

                    Orbital Energies (a.u.)
 --------------------------------------------------------------

 Alpha MOs
 -- Occupied --
-14.1752 -10.1127 -10.1107 -10.0799 -10.0765 -10.0761 -10.0749 -10.0700
-10.0659  -1.0218  -0.8738  -0.8258  -0.7694  -0.7575  -0.6661  -0.6348
 -0.6200  -0.5784  -0.5269  -0.5093  -0.4730  -0.4690  -0.4678  -0.4491
 -0.4334  -0.3912  -0.3744  -0.3711  -0.3196  -0.2507  -0.2393

          Ground-State Mulliken Net Atomic Charges

     Atom                 Charge (a.u.)
  ----------------------------------------
      1 C                    -0.028499
      2 C                    -0.377671
      3 C                    -0.120341
      4 C                    -0.581847
      5 C                     0.845856
      6 C                    -0.596014
      7 N                    -0.564110
      8 C                     0.286056
      9 C                    -0.307558
     10 H                     0.400315
     11 H                     0.180973
     12 H                     0.191282
     13 H                     0.167494
     14 H                     0.169134
     15 H                     0.161566
     16 H                     0.173365
  ----------------------------------------
  Sum of atomic charges =     0.000000

                    Cartesian Multipole Moments
 -----------------------------------------------------------------
    Charge (ESU x 10^10)
                -0.0000
    Dipole Moment (Debye)
         X      -1.6050      Y       1.5020      Z       0.0005
       Tot       2.1982
    Quadrupole Moments (Debye-Ang)
        XX     -45.3088     XY      -2.9426     YY     -44.5189
        XZ      -0.0011     YZ       0.0016     ZZ     -59.1481

 Total job time:  1989.06s(wall), 7907.98s(cpu)
        *  Thank you very much for using Q-Chem.  Have a nice day.  *
