 Q-Chem 5.3, Q-Chem, Inc., Pleasanton, CA (2020)
 Q-Chem 5.3.1 for Intel X86 EM64T Linux

User input:
--------------------------------------------------------------
$molecule
0 1
C   -2.1510630    0.6892080    0.0000880
C   -2.1279270   -0.7158180    0.0000750
C   -0.9322970   -1.4131000   -0.0000110
C    0.2469110   -0.6702010   -0.0000420
C    0.2481930    0.7482990    0.0000000
C   -0.9794740    1.4235260    0.0000320
N    1.5617740   -1.0775920   -0.0002850
C    1.6201330    1.1629000   -0.0001570
C    2.3820130    0.0308060    0.0002480
H    1.8763150   -2.0300110    0.0004380
H    1.9921730    2.1730100   -0.0003480
H    3.4525490   -0.0824250    0.0004080
H   -3.0615940   -1.2620200    0.0000880
H   -0.9172520   -2.4953420   -0.0000730
H   -3.1042030    1.2007850    0.0000900
H   -1.0093480    2.5054210   -0.0000150
$end

$rem
BASIS  =  6-31+G*
GUI  =  2
JOB_TYPE  =  Optimization
METHOD  = PBE0
SCF_CONVERGENCE  =  8
THRESH = 12
CIS_N_ROOTS  = 3
CIS_SINGLETS = true
CIS_TRIPLETS = false
CIS_STATE_DERIV = 1
MEM_STATIC = 500
MEM_TOTAL = 3000
$end
--------------------------------------------------------------

   14    -363.4038168722      5.67e-09  Convergence criterion met
 Total energy in the final basis set =     -363.4038168722
   12    -363.3987967624      3.92e-09  Convergence criterion met
 Total energy in the final basis set =     -363.3987967624
   12    -363.3930190473      3.29e-09  Convergence criterion met
 Total energy in the final basis set =     -363.3930190473
   11    -363.3920912226      5.04e-09  Convergence criterion met
 Total energy in the final basis set =     -363.3920912226
   11    -363.3928048770      4.19e-09  Convergence criterion met
 Total energy in the final basis set =     -363.3928048770
   10    -363.3929544651      5.00e-09  Convergence criterion met
 Total energy in the final basis set =     -363.3929544651

             Standard Nuclear Orientation (Angstroms)
    I     Atom           X                Y                Z
 ----------------------------------------------------------------
    1      C       2.1762236790    -0.6852577714    -0.0000389304
    2      C       2.1408424555     0.7020462384     0.0000237047
    3      C       0.9200980555     1.4509252117     0.0000970976
    4      C      -0.2380824124     0.6455162374     0.0000669949
    5      C      -0.2308086474    -0.7459996568     0.0000093474
    6      C       0.9897290642    -1.4737892906    -0.0000384554
    7      N      -1.5925342929     1.0556351318     0.0001169761
    8      C      -1.6056745713    -1.1577025954     0.0000113381
    9      C      -2.4198776599     0.0103730661     0.0000880032
   10      H      -1.8883593049     2.0225416291     0.0002313415
   11      H      -1.9872821833    -2.1710759858    -0.0000414615
   12      H      -3.4955117164     0.1155155489     0.0001178556
   13      H       3.0800738401     1.2507140254     0.0000214107
   14      H       0.8991599582     2.5346207138     0.0000291694
   15      H       3.1422709557    -1.1836194988    -0.0000843851
   16      H       1.0128277315    -2.5578905111    -0.0000840255
 ----------------------------------------------------------------

    8    -363.3929922211      8.97e-09  Convergence criterion met
 Total energy in the final basis set =     -363.3929922211

         TDDFT/TDA Excitation Energies
 ---------------------------------------------------

 Excited state   1: excitation energy (eV) =    4.4518
 Total energy for state  1:                  -363.22939029 au
    Multiplicity: Singlet
    Trans. Mom.: -0.7244 X   0.6900 Y   0.0001 Z
    Strength   :     0.1091617847
    D(   31) --> V(    1) amplitude =  0.9285

 Excited state   2: excitation energy (eV) =    4.7697
 Total energy for state  2:                  -363.21771024 au
    Multiplicity: Singlet
    Trans. Mom.: -0.0001 X   0.0000 Y  -0.1392 Z
    Strength   :     0.0022641047
    D(   31) --> V(    2) amplitude =  0.9941

 Excited state   3: excitation energy (eV) =    4.9526
 Total energy for state  3:                  -363.21098817 au
    Multiplicity: Singlet
    Trans. Mom.: -0.0598 X  -0.2398 Y  -0.0000 Z
    Strength   :     0.0074107034
    D(   30) --> V(    1) amplitude =  0.7391
    D(   31) --> V(    4) amplitude =  0.6294

 ---------------------------------------------------

 Final energy is   -363.229390285855
 **  OPTIMIZATION CONVERGED  **

                    Orbital Energies (a.u.)
 --------------------------------------------------------------

 Alpha MOs
 -- Occupied --
-14.4537 -10.2766 -10.2746 -10.2513 -10.2442 -10.2402 -10.2393 -10.2368
-10.2275  -1.0160  -0.8661  -0.8001  -0.7643  -0.7330  -0.6497  -0.6141
 -0.5970  -0.5605  -0.4993  -0.4892  -0.4539  -0.4491  -0.4392  -0.4167
 -0.4050  -0.3656  -0.3561  -0.3502  -0.2849  -0.2442  -0.2065

          Ground-State Mulliken Net Atomic Charges

     Atom                 Charge (a.u.)
  ----------------------------------------
      1 C                    -0.060965
      2 C                    -0.416284
      3 C                    -0.346960
      4 C                    -1.238405
      5 C                     1.733260
      6 C                    -0.613532
      7 N                    -0.429813
      8 C                    -0.169103
      9 C                    -0.175665
     10 H                     0.435554
     11 H                     0.213931
     12 H                     0.222484
     13 H                     0.205307
     14 H                     0.214635
     15 H                     0.206084
     16 H                     0.219471
  ----------------------------------------
  Sum of atomic charges =     0.000000

                    Cartesian Multipole Moments
 -----------------------------------------------------------------
    Charge (ESU x 10^10)
                 0.0000
    Dipole Moment (Debye)
         X      -1.4162      Y       1.7621      Z       0.0001
       Tot       2.2606
    Quadrupole Moments (Debye-Ang)
        XX     -44.6133     XY      -3.8025     YY     -43.8700
        XZ      -0.0008     YZ       0.0008     ZZ     -59.1579

 Total job time:  632.82s(wall), 1278.45s(cpu)
        *  Thank you very much for using Q-Chem.  Have a nice day.  *
