 Q-Chem 5.3, Q-Chem, Inc., Pleasanton, CA (2020)
 Q-Chem 5.3.1 for Intel X86 EM64T Linux

User input:
--------------------------------------------------------------
$molecule
0 1
C   -2.1510630    0.6892080    0.0000880
C   -2.1279270   -0.7158180    0.0000750
C   -0.9322970   -1.4131000   -0.0000110
C    0.2469110   -0.6702010   -0.0000420
C    0.2481930    0.7482990    0.0000000
C   -0.9794740    1.4235260    0.0000320
N    1.5617740   -1.0775920   -0.0002850
C    1.6201330    1.1629000   -0.0001570
C    2.3820130    0.0308060    0.0002480
H    1.8763150   -2.0300110    0.0004380
H    1.9921730    2.1730100   -0.0003480
H    3.4525490   -0.0824250    0.0004080
H   -3.0615940   -1.2620200    0.0000880
H   -0.9172520   -2.4953420   -0.0000730
H   -3.1042030    1.2007850    0.0000900
H   -1.0093480    2.5054210   -0.0000150
$end

$rem
BASIS  =  6-31+G*
GUI  =  2
JOB_TYPE  =  Optimization
METHOD  = CAM-B3LYP
SCF_CONVERGENCE  =  8
THRESH = 12
CIS_N_ROOTS  = 3
CIS_SINGLETS = true
CIS_TRIPLETS = false
CIS_STATE_DERIV = 1
MEM_STATIC = 500
MEM_TOTAL = 3000
$end
--------------------------------------------------------------

   15    -363.6246831047      3.55e-09  Convergence criterion met
 Total energy in the final basis set =     -363.6246831047
   12    -363.6206795566      7.52e-09  Convergence criterion met
 Total energy in the final basis set =     -363.6206795566
   11    -363.6202705822      6.61e-09  Convergence criterion met
 Total energy in the final basis set =     -363.6202705822
   11    -363.6200397955      2.15e-09  Convergence criterion met
 Total energy in the final basis set =     -363.6200397955

             Standard Nuclear Orientation (Angstroms)
    I     Atom           X                Y                Z
 ----------------------------------------------------------------
    1      C       2.1611345710    -0.6843491769    -0.0000182865
    2      C       2.1544189319     0.7360804400     0.0000133142
    3      C       0.9341108905     1.4507529176     0.0000405350
    4      C      -0.2479602608     0.6818317109     0.0000233356
    5      C      -0.2607882196    -0.7735324319    -0.0000240115
    6      C       0.9676319173    -1.4571344088    -0.0000382534
    7      N      -1.5484212892     1.0724219143     0.0000267103
    8      C      -1.6352626647    -1.1730414596    -0.0000007571
    9      C      -2.4096851579    -0.0413490423     0.0001207423
   10      H      -1.8598528378     2.0325966128     0.0003897458
   11      H      -2.0066298892    -2.1887786436    -0.0000573593
   12      H      -3.4804857618     0.0913793046     0.0000995969
   13      H       3.0967026850     1.2715864296     0.0000128211
   14      H       0.9091154341     2.5350914918     0.0000223735
   15      H       3.1159835556    -1.2005910275    -0.0000342522
   16      H       1.0130830468    -2.5404121384    -0.0000502736
 ----------------------------------------------------------------

    9    -363.6200398629      4.38e-09  Convergence criterion met
 Total energy in the final basis set =     -363.6200398629

         TDDFT/TDA Excitation Energies
 ---------------------------------------------------

 Excited state   1: excitation energy (eV) =    4.9034
 Total energy for state  1:                  -363.43984367 au
    Multiplicity: Singlet
    Trans. Mom.: -0.4308 X  -0.4877 Y   0.0000 Z
    Strength   :     0.0508684102
    D(   30) --> V(    1) amplitude =  0.7614
    D(   31) --> V(    1) amplitude = -0.3503
    D(   31) --> V(    5) amplitude =  0.4690

 Excited state   2: excitation energy (eV) =    5.1473
 Total energy for state  2:                  -363.43087899 au
    Multiplicity: Singlet
    Trans. Mom.: -0.7428 X   0.6291 Y   0.0001 Z
    Strength   :     0.1194827454
    D(   30) --> V(    1) amplitude =  0.2921
    D(   30) --> V(    5) amplitude = -0.3098
    D(   31) --> V(    1) amplitude =  0.8392
    D(   31) --> V(    5) amplitude =  0.2625

 Excited state   3: excitation energy (eV) =    5.3116
 Total energy for state  3:                  -363.42484387 au
    Multiplicity: Singlet
    Trans. Mom.:  0.0004 X  -0.0003 Y   0.1438 Z
    Strength   :     0.0026903045
    D(   31) --> V(    2) amplitude =  0.9665

 ---------------------------------------------------

 Final energy is   -363.439843669426
 **  OPTIMIZATION CONVERGED  **

                    Orbital Energies (a.u.)
 --------------------------------------------------------------

 Alpha MOs
 -- Occupied --
-14.4591 -10.3027 -10.3009 -10.2705 -10.2668 -10.2667 -10.2652 -10.2600
-10.2565  -1.0655  -0.9153  -0.8675  -0.8106  -0.7991  -0.7026  -0.6707
 -0.6559  -0.6107  -0.5599  -0.5405  -0.5030  -0.4993  -0.4939  -0.4794
 -0.4624  -0.4199  -0.4022  -0.3967  -0.3443  -0.2717  -0.2606

          Ground-State Mulliken Net Atomic Charges

     Atom                 Charge (a.u.)
  ----------------------------------------
      1 C                    -0.006431
      2 C                    -0.416880
      3 C                    -0.174925
      4 C                    -0.710569
      5 C                     1.093795
      6 C                    -0.684565
      7 N                    -0.532484
      8 C                     0.119428
      9 C                    -0.240710
     10 H                     0.418109
     11 H                     0.197079
     12 H                     0.201644
     13 H                     0.183299
     14 H                     0.185288
     15 H                     0.177616
     16 H                     0.190308
  ----------------------------------------
  Sum of atomic charges =     0.000000

                    Cartesian Multipole Moments
 -----------------------------------------------------------------
    Charge (ESU x 10^10)
                 0.0000
    Dipole Moment (Debye)
         X      -1.5999      Y       1.5059      Z       0.0005
       Tot       2.1972
    Quadrupole Moments (Debye-Ang)
        XX     -45.5621     XY      -2.9611     YY     -44.5955
        XZ      -0.0013     YZ       0.0017     ZZ     -59.3551

 Total job time:  361.35s(wall), 1435.65s(cpu)
        *  Thank you very much for using Q-Chem.  Have a nice day.  *
