 Gaussian 16, Revision C.01,
 Gaussian 16:  AS64L-G16RevC.01  3-Jul-2019

 -----------------------------------------------------------
 # opt td=(root=3) cam-b3lyp/6-311+g(2d,p) geom=connectivity
 -----------------------------------------------------------

 ------------------
 cc-pvtzOptTemplate
 ------------------
 Symbolic Z-matrix:
 Charge =  0 Multiplicity = 1

 SCF Done:  E(RCAM-B3LYP) =  -363.717133734     A.U. after   14 cycles
 Total Energy, E(TD-HF/TD-DFT) =  -363.522156823
 SCF Done:  E(RCAM-B3LYP) =  -363.711701887     A.U. after   13 cycles
 Total Energy, E(TD-HF/TD-DFT) =  -363.529889973
 SCF Done:  E(RCAM-B3LYP) =  -363.707236446     A.U. after   12 cycles
 Total Energy, E(TD-HF/TD-DFT) =  -363.531020383
 SCF Done:  E(RCAM-B3LYP) =  -363.706738057     A.U. after   10 cycles
 Total Energy, E(TD-HF/TD-DFT) =  -363.531102609
 SCF Done:  E(RCAM-B3LYP) =  -363.706541376     A.U. after   10 cycles
 Total Energy, E(TD-HF/TD-DFT) =  -363.531116797
 SCF Done:  E(RCAM-B3LYP) =  -363.706560556     A.U. after    9 cycles

 Excitation energies and oscillator strengths:

 Excited State   1:      Singlet-A      4.6487 eV  266.71 nm  f=0.1591  <S**2>=0.000
      30 -> 37         0.13329
      31 -> 33         0.68102

 Excited State   2:      Singlet-A      5.0587 eV  245.09 nm  f=0.0052  <S**2>=0.000
      30 -> 33        -0.50339
      31 -> 37         0.46552

 Excited State   3:      Singlet-A      4.7740 eV  259.71 nm  f=0.0025  <S**2>=0.000
      31 -> 32         0.69147
 This state for optimization and/or second-order correction.
 Total Energy, E(TD-HF/TD-DFT) =  -363.531118964
 Copying the excited state density for this state as the 1-particle RhoCI density.

 Optimization completed.
    -- Stationary point found.

                         Standard orientation:
 ---------------------------------------------------------------------
 Center     Atomic      Atomic             Coordinates (Angstroms)
 Number     Number       Type             X           Y           Z
 ---------------------------------------------------------------------
      1          6           0       -2.171835    0.634781   -0.000085
      2          6           0       -2.088016   -0.756109   -0.000014
      3          6           0       -0.860100   -1.431552    0.000049
      4          6           0        0.264628   -0.657554    0.000061
      5          6           0        0.214433    0.757574   -0.000008
      6          6           0       -1.029134    1.407981   -0.000110
      7          7           0        1.612861   -1.022771    0.000105
      8          6           0        1.541540    1.205859    0.000049
      9          6           0        2.362952    0.044904   -0.000056
     10          1           0        1.998884   -2.004767    0.000136
     11          1           0        1.902983    2.222634    0.000017
     12          1           0        3.441995   -0.042024   -0.000109
     13          1           0       -2.999673   -1.338710    0.000004
     14          1           0       -0.809063   -2.509506    0.000124
     15          1           0       -3.144030    1.108360   -0.000109
     16          1           0       -1.087931    2.488113   -0.000126
 ---------------------------------------------------------------------

 The electronic state is 1-A.
 Alpha  occ. eigenvalues --  -14.43953 -10.27966 -10.27379 -10.24484 -10.23948
 Alpha  occ. eigenvalues --  -10.23765 -10.23672 -10.23382 -10.22786  -1.08111
 Alpha  occ. eigenvalues --   -0.93111  -0.86250  -0.82727  -0.78996  -0.70636
 Alpha  occ. eigenvalues --   -0.67109  -0.65900  -0.61707  -0.55332  -0.54478
 Alpha  occ. eigenvalues --   -0.51437  -0.50584  -0.50336  -0.47208  -0.45692
 Alpha  occ. eigenvalues --   -0.42099  -0.41078  -0.40339  -0.34132  -0.28866
 Alpha  occ. eigenvalues --   -0.24738
 Alpha virt. eigenvalues --    0.01773   0.02026   0.03942   0.04505   0.06053
 Alpha virt. eigenvalues --    0.06103   0.06168   0.07736   0.08173   0.08817
 Alpha virt. eigenvalues --    0.08888   0.09140   0.10940   0.11382   0.12796

 Mulliken charges:
               1
     1  C   -0.064519
     2  C   -0.122190
     3  C   -0.426175
     4  C   -0.012423
     5  C    1.046604
     6  C   -0.604416
     7  N   -0.272207
     8  C   -0.338158
     9  C   -0.012101
    10  H    0.261178
    11  H    0.090228
    12  H    0.108301
    13  H    0.082743
    14  H    0.086725
    15  H    0.085429
    16  H    0.090979
 Sum of Mulliken charges =  -0.00000

 Dipole moment (field-independent basis, Debye):
    X=              1.6541    Y=             -1.8197    Z=              0.0000  Tot=              2.4591
 Quadrupole moment (field-independent basis, Debye-Ang):
   XX=            -45.3136   YY=            -44.8208   ZZ=            -58.7311
   XY=             -4.3105   XZ=             -0.0002   YZ=             -0.0006

 Normal termination of Gaussian 16 at Mon Jun 14 09:52:05 2021.
